# Trace file generated by Jist/Swans Version 1.0.6. at Wed May 29 01:03:06 BRT 2013
V -t * -v 1.0a5 -a 0
W -t * -x 410 -y 410
A -t * -n 1 -p 0 -o 0xffffffff -c 31 -a 1
A -t * -h 1 -m 2147483647 -s 0
n -t 0.0 -s 1 -S UP -v circle -c red -x 62.553406 -y 111.11608 -z 4
n -t 0.0 -s 2 -S UP -v circle -c red -x 313.72464 -y 63.568832 -z 4
n -t 0.0 -s 3 -S UP -v circle -c red -x 230.3687 -y 121.9708 -z 4
n -t 0.0 -s 4 -S UP -v circle -c red -x 185.20743 -y 234.55783 -z 4
n -t 0.0 -s 5 -S UP -v circle -c red -x 27.513683 -y 223.20917 -z 4
n -t 0.0 -s 6 -S UP -v circle -c red -x 460.08282 -y 161.31813 -z 4
n -t 0.0 -s 7 -S UP -v circle -c red -x 246.48944 -y 225.76439 -z 4
n -t 0.0 -s 8 -S UP -v circle -c red -x 277.27747 -y 53.616344 -z 4
n -t 0.0 -s 9 -S UP -v circle -c blue -x 286.98 -y 276.7481 -z 4
n -t 0.0 -s 10 -S UP -v circle -c blue -x 352.73108 -y 8.190096 -z 4
n -t 0.0 -s 11 -S UP -v circle -c blue -x 193.24919 -y 66.16589 -z 4
n -t 0.0 -s 12 -S UP -v circle -c blue -x 31.499237 -y 277.0964 -z 4
n -t 0.0 -s 13 -S UP -v circle -c blue -x 379.37262 -y 235.89423 -z 4
n -t 0.0 -s 14 -S UP -v circle -c blue -x 71.71628 -y 328.49847 -z 4
n -t 0.0 -s 15 -S UP -v circle -c blue -x 185.74551 -y 439.97046 -z 4
n -t 0.0 -s 16 -S UP -v circle -c blue -x 460.7782 -y 365.85464 -z 4
n -t 0.0 -s 17 -S UP -v circle -c blue -x 33.24884 -y 229.16443 -z 4
n -t 0.0 -s 18 -S UP -v circle -c blue -x 316.79175 -y 251.71017 -z 4
n -t 0.0 -s 19 -S UP -v circle -c blue -x 379.67584 -y 37.546696 -z 4
n -t 0.0 -s 20 -S UP -v circle -c blue -x 411.5842 -y 84.22923 -z 4
n -t 0.0 -s 1 -S UP -v circle -c red -x 62.553406 -y 111.11608 -z 4
n -t 0.0 -s 3 -S UP -v circle -c red -x 230.3687 -y 121.9708 -z 4
n -t 0.0 -s 7 -S UP -v circle -c red -x 246.48944 -y 225.76439 -z 4
n -t 0.0 -s 15 -S UP -v circle -c blue -x 185.74551 -y 439.97046 -z 4
n -t 0.0 -s 16 -S UP -v circle -c blue -x 460.7782 -y 365.85464 -z 4
n -t 0.0 -s 8 -S UP -v circle -c red -x 277.27747 -y 53.616344 -z 4
n -t 0.0 -s 17 -S UP -v circle -c blue -x 33.24884 -y 229.16443 -z 4
n -t 0.0 -s 18 -S UP -v circle -c blue -x 316.79175 -y 251.71017 -z 4
n -t 0.0 -s 4 -S UP -v circle -c red -x 185.20743 -y 234.55783 -z 4
n -t 0.0 -s 9 -S UP -v circle -c blue -x 286.98 -y 276.7481 -z 4
n -t 0.0 -s 19 -S UP -v circle -c blue -x 379.67584 -y 37.546696 -z 4
n -t 0.0 -s 20 -S UP -v circle -c blue -x 411.5842 -y 84.22923 -z 4
n -t 0.0 -s 10 -S UP -v circle -c blue -x 352.73108 -y 8.190096 -z 4
n -t 0.0 -s 2 -S UP -v circle -c red -x 313.72464 -y 63.568832 -z 4
n -t 0.0 -s 5 -S UP -v circle -c red -x 27.513683 -y 223.20917 -z 4
n -t 0.0 -s 11 -S UP -v circle -c blue -x 193.24919 -y 66.16589 -z 4
n -t 0.0 -s 12 -S UP -v circle -c blue -x 31.499237 -y 277.0964 -z 4
n -t 0.0 -s 6 -S UP -v circle -c red -x 460.08282 -y 161.31813 -z 4
n -t 0.0 -s 13 -S UP -v circle -c blue -x 379.37262 -y 235.89423 -z 4
n -t 0.0 -s 14 -S UP -v circle -c blue -x 71.71628 -y 328.49847 -z 4
n -t 0.37851694 -s 12 -S UP -v circle -c blue -x 26.419579 -y 274.25363 -z 4
n -t 0.5235225 -s 13 -S UP -v circle -c blue -x 375.2377 -y 233.93883 -z 4
n -t 0.69522667 -s 20 -S UP -v circle -c blue -x 410.0855 -y 87.1506 -z 4
n -t 0.74682236 -s 6 -S UP -v circle -c red -x 455.21518 -y 155.57533 -z 4
n -t 0.7554454 -s 19 -S UP -v circle -c blue -x 375.9718 -y 46.098446 -z 4
n -t 0.8393806 -s 17 -S UP -v circle -c blue -x 28.756027 -y 226.28717 -z 4
n -t 1.0746214 -s 11 -S UP -v circle -c blue -x 199.83032 -y 75.37188 -z 4
n -t 1.1337932 -s 14 -S UP -v circle -c blue -x 70.45397 -y 318.52112 -z 4
n -t 1.2024612 -s 11 -S UP -v circle -c blue -x 199.09035 -y 74.41474 -z 4
n -t 1.4297183 -s 16 -S UP -v circle -c blue -x 454.7569 -y 337.9478 -z 4
n -t 1.4660184 -s 6 -S UP -v circle -c red -x 464.51822 -y 159.36319 -z 4
n -t 1.7362124 -s 9 -S UP -v circle -c blue -x 296.46268 -y 273.37897 -z 4
n -t 1.7501017 -s 18 -S UP -v circle -c blue -x 294.4135 -y 277.6527 -z 4
n -t 1.7737529 -s 13 -S UP -v circle -c blue -x 378.24768 -y 248.48207 -z 4
n -t 2.2269385 -s 19 -S UP -v circle -c blue -x 378.57986 -y 49.564034 -z 4
n -t 2.266511 -s 6 -S UP -v circle -c red -x 458.3112 -y 152.04337 -z 4
n -t 2.3867524 -s 13 -S UP -v circle -c blue -x 384.27103 -y 257.48996 -z 4
n -t 2.9397047 -s 9 -S UP -v circle -c blue -x 281.49112 -y 287.20804 -z 4
n -t 2.9592242 -s 7 -S UP -v circle -c red -x 253.33739 -y 264.1415 -z 4
n -t 2.9919062 -s 7 -S UP -v circle -c red -x 253.52744 -y 264.186 -z 4
n -t 3.0243413 -s 17 -S UP -v circle -c blue -x 54.540554 -y 242.79607 -z 4
n -t 3.7479815 -s 16 -S UP -v circle -c blue -x 483.6686 -y 334.8583 -z 4
n -t 3.7650616 -s 6 -S UP -v circle -c red -x 439.7767 -y 163.673 -z 4
n -t 3.9476266 -s 19 -S UP -v circle -c blue -x 374.3693 -y 60.3123 -z 4
n -t 3.978678 -s 19 -S UP -v circle -c blue -x 374.59647 -y 60.39878 -z 4
n -t 4.036929 -s 12 -S UP -v circle -c blue -x 5.2760773 -y 309.52762 -z 4
n -t 4.4239073 -s 10 -S UP -v circle -c blue -x 326.83224 -y 14.615099 -z 4
n -t 4.6688256 -s 17 -S UP -v circle -c blue -x 56.58689 -y 239.65195 -z 4
n -t 4.8306856 -s 6 -S UP -v circle -c red -x 448.784 -y 165.47852 -z 4
n -t 4.9971128 -s 18 -S UP -v circle -c blue -x 286.61044 -y 290.9936 -z 4
n -t 5.0525274 -s 10 -S UP -v circle -c blue -x 318.87158 -y 14.377159 -z 4
n -t 5.107876 -s 6 -S UP -v circle -c red -x 448.3694 -y 164.91599 -z 4
n -t 5.673299 -s 9 -S UP -v circle -c blue -x 264.47168 -y 282.20346 -z 4
n -t 7.0087633 -s 10 -S UP -v circle -c blue -x 308.29718 -y 13.185641 -z 4
n -t 7.0709667 -s 17 -S UP -v circle -c blue -x 34.062572 -y 248.90488 -z 4
n -t 7.4545794 -s 18 -S UP -v circle -c blue -x 307.7109 -y 301.19574 -z 4
n -t 7.9491987 -s 17 -S UP -v circle -c blue -x 39.643326 -y 237.53409 -z 4
n -t 8.029265 -s 17 -S UP -v circle -c blue -x 40.232803 -y 238.39954 -z 4
n -t 8.076337 -s 16 -S UP -v circle -c blue -x 485.8921 -y 336.88077 -z 4
n -t 8.096996 -s 6 -S UP -v circle -c red -x 477.8473 -y 200.41725 -z 4
n -t 8.485092 -s 19 -S UP -v circle -c blue -x 368.9785 -y 76.55935 -z 4
n -t 8.607691 -s 12 -S UP -v circle -c blue -x 9.167191 -y 332.35513 -z 4
n -t 8.904997 -s 10 -S UP -v circle -c blue -x 302.30786 -y 21.217884 -z 4
n -t 8.947498 -s 8 -S UP -v circle -c red -x 270.95462 -y 52.708687 -z 4
n -t 9.003518 -s 12 -S UP -v circle -c blue -x 10.291372 -y 327.85535 -z 4
n -t 9.411557 -s 19 -S UP -v circle -c blue -x 375.97342 -y 91.017494 -z 4
n -t 9.43457 -s 17 -S UP -v circle -c blue -x 34.891247 -y 246.22746 -z 4
n -t 9.536935 -s 6 -S UP -v circle -c red -x 494.2837 -y 202.77931 -z 4
n -t 9.793618 -s 19 -S UP -v circle -c blue -x 378.0815 -y 96.05968 -z 4
n -t 9.868852 -s 8 -S UP -v circle -c red -x 278.2887 -y 44.628693 -z 4
n -t 10.002839 -s 8 -S UP -v circle -c red -x 278.65833 -y 45.165867 -z 4
n -t 10.113195 -s 10 -S UP -v circle -c blue -x 293.96564 -y 8.16903 -z 4
n -t 10.354937 -s 16 -S UP -v circle -c blue -x 488.56912 -y 339.12195 -z 4
n -t 10.588927 -s 18 -S UP -v circle -c blue -x 289.59705 -y 280.20685 -z 4
n -t 10.907524 -s 11 -S UP -v circle -c blue -x 219.84158 -y 184.22278 -z 4
n -t 10.94579 -s 8 -S UP -v circle -c red -x 265.79282 -y 47.796803 -z 4
n -t 10.95281 -s 16 -S UP -v circle -c blue -x 491.496 -y 332.48453 -z 4
n -t 10.982127 -s 18 -S UP -v circle -c blue -x 287.24097 -y 281.2212 -z 4
n -t 11.00452 -s 12 -S UP -v circle -c blue -x 11.744002 -y 325.91656 -z 4
n -t 11.031937 -s 8 -S UP -v circle -c red -x 266.26355 -y 49.284637 -z 4
n -t 11.507899 -s 19 -S UP -v circle -c blue -x 379.83524 -y 113.239265 -z 4
n -t 11.670185 -s 6 -S UP -v circle -c red -x 483.6829 -y 184.81587 -z 4
n -t 11.773222 -s 13 -S UP -v circle -c blue -x 346.2603 -y 218.40851 -z 4
n -t 12.322146 -s 18 -S UP -v circle -c blue -x 309.27078 -y 273.3776 -z 4
n -t 12.348307 -s 11 -S UP -v circle -c blue -x 221.6763 -y 188.31694 -z 4
n -t 12.349558 -s 12 -S UP -v circle -c blue -x 9.429487 -y 326.4252 -z 4
n -t 12.538468 -s 19 -S UP -v circle -c blue -x 367.57394 -y 104.58611 -z 4
n -t 12.729553 -s 12 -S UP -v circle -c blue -x 2.3395398 -y 325.7981 -z 4
n -t 13.115238 -s 10 -S UP -v circle -c blue -x 292.57706 -y 2.0325558 -z 4
n -t 13.182684 -s 11 -S UP -v circle -c blue -x 232.80864 -y 192.60939 -z 4
n -t 13.213126 -s 10 -S UP -v circle -c blue -x 291.77847 -y 3.0437663 -z 4
n -t 13.232382 -s 18 -S UP -v circle -c blue -x 316.17224 -y 287.69736 -z 4
n -t 13.501096 -s 19 -S UP -v circle -c blue -x 365.83994 -y 87.43124 -z 4
n -t 13.526645 -s 10 -S UP -v circle -c blue -x 286.16763 -y 2.8466983 -z 4
n -t 13.545681 -s 13 -S UP -v circle -c blue -x 341.8603 -y 246.89749 -z 4
n -t 13.895814 -s 6 -S UP -v circle -c red -x 475.2934 -y 141.79811 -z 4
n -t 14.106788 -s 9 -S UP -v circle -c blue -x 252.57741 -y 312.88925 -z 4
n -t 14.299322 -s 11 -S UP -v circle -c blue -x 225.096 -y 203.72208 -z 4
n -t 14.343059 -s 16 -S UP -v circle -c blue -x 454.25714 -y 282.8658 -z 4
n -t 15.154022 -s 18 -S UP -v circle -c blue -x 320.5942 -y 286.92914 -z 4
n -t 16.081154 -s 18 -S UP -v circle -c blue -x 326.84283 -y 286.50958 -z 4
n -t 16.487118 -s 13 -S UP -v circle -c blue -x 344.20178 -y 265.8538 -z 4
n -t 18.892258 -s 10 -S UP -v circle -c blue -x 288.7366 -y 26.34634 -z 4
n -t 18.928862 -s 7 -S UP -v circle -c red -x 268.58234 -y 279.79446 -z 4
n -t 19.2521 -s 13 -S UP -v circle -c blue -x 341.56973 -y 253.5011 -z 4
n -t 19.328098 -s 19 -S UP -v circle -c blue -x 376.77744 -y 66.84427 -z 4
n -t 19.8131 -s 12 -S UP -v circle -c blue -x 37.31089 -y 328.23944 -z 4
n -t 20.538069 -s 16 -S UP -v circle -c blue -x 374.99078 -y 208.49106 -z 4
n -t 21.19763 -s 19 -S UP -v circle -c blue -x 387.67218 -y 86.180885 -z 4
n -t 21.407385 -s 7 -S UP -v circle -c red -x 298.48666 -y 243.77025 -z 4
n -t 21.924055 -s 13 -S UP -v circle -c blue -x 336.16956 -y 240.52538 -z 4
n -t 21.967138 -s 16 -S UP -v circle -c blue -x 375.32492 -y 212.72122 -z 4
n -t 21.983994 -s 19 -S UP -v circle -c blue -x 389.87427 -y 95.63382 -z 4
n -t 22.033304 -s 19 -S UP -v circle -c blue -x 390.50925 -y 96.30122 -z 4
n -t 22.257248 -s 17 -S UP -v circle -c blue -x 48.69461 -y 250.47733 -z 4
n -t 22.271938 -s 9 -S UP -v circle -c blue -x 267.8052 -y 285.73315 -z 4
n -t 22.445427 -s 19 -S UP -v circle -c blue -x 395.6023 -y 101.88715 -z 4
n -t 22.492474 -s 19 -S UP -v circle -c blue -x 395.14804 -y 102.4732 -z 4
n -t 23.011478 -s 7 -S UP -v circle -c red -x 312.82117 -y 229.87015 -z 4
n -t 23.61982 -s 18 -S UP -v circle -c blue -x 223.11812 -y 256.22763 -z 4
n -t 23.677244 -s 9 -S UP -v circle -c blue -x 277.27795 -y 259.53284 -z 4
n -t 23.689974 -s 18 -S UP -v circle -c blue -x 222.92737 -y 255.8585 -z 4
n -t 24.439516 -s 18 -S UP -v circle -c blue -x 215.99602 -y 263.7436 -z 4
n -t 24.718956 -s 18 -S UP -v circle -c blue -x 221.48387 -y 263.00092 -z 4
n -t 25.48012 -s 10 -S UP -v circle -c blue -x 299.37985 -y 30.828178 -z 4
n -t 25.592768 -s 10 -S UP -v circle -c blue -x 297.6823 -y 31.80298 -z 4
n -t 26.98847 -s 19 -S UP -v circle -c blue -x 410.50745 -y 125.131714 -z 4
n -t 27.535059 -s 18 -S UP -v circle -c blue -x 246.42401 -y 309.24887 -z 4
n -t 27.74257 -s 15 -S UP -v circle -c blue -x 234.35075 -y 403.35043 -z 4
n -t 28.105867 -s 18 -S UP -v circle -c blue -x 241.51115 -y 301.2996 -z 4
n -t 28.453085 -s 18 -S UP -v circle -c blue -x 246.92958 -y 297.80212 -z 4
n -t 28.766777 -s 15 -S UP -v circle -c blue -x 239.49196 -y 409.8181 -z 4
n -t 29.217566 -s 15 -S UP -v circle -c blue -x 243.77942 -y 410.38315 -z 4
n -t 29.73451 -s 18 -S UP -v circle -c blue -x 238.67142 -y 291.94977 -z 4
n -t 29.912409 -s 15 -S UP -v circle -c blue -x 233.86319 -y 419.16867 -z 4
n -t 30.362928 -s 6 -S UP -v circle -c red -x 450.29523 -y 135.96077 -z 4
n -t 30.434296 -s 6 -S UP -v circle -c red -x 449.76892 -y 135.57109 -z 4
n -t 31.049736 -s 15 -S UP -v circle -c blue -x 243.59137 -y 406.9079 -z 4
n -t 31.111197 -s 18 -S UP -v circle -c blue -x 244.99745 -y 276.76553 -z 4
n -t 31.372635 -s 10 -S UP -v circle -c blue -x 308.89084 -y 59.03409 -z 4
n -t 31.919416 -s 9 -S UP -v circle -c blue -x 312.53693 -y 220.71013 -z 4
n -t 31.946533 -s 9 -S UP -v circle -c blue -x 312.50787 -y 220.76643 -z 4
n -t 31.974087 -s 9 -S UP -v circle -c blue -x 312.16565 -y 220.83488 -z 4
n -t 32.056206 -s 14 -S UP -v circle -c blue -x 60.568222 -y 278.97073 -z 4
n -t 32.416332 -s 15 -S UP -v circle -c blue -x 234.66972 -y 383.47647 -z 4
n -t 32.52574 -s 10 -S UP -v circle -c blue -x 291.92303 -y 73.800545 -z 4
n -t 34.018383 -s 9 -S UP -v circle -c blue -x 315.56757 -y 220.72786 -z 4
n -t 34.071747 -s 18 -S UP -v circle -c blue -x 264.44345 -y 235.53963 -z 4
n -t 34.743248 -s 18 -S UP -v circle -c blue -x 276.73328 -y 234.56369 -z 4
n -t 34.857994 -s 19 -S UP -v circle -c blue -x 432.87292 -y 158.69301 -z 4
n -t 35.19277 -s 14 -S UP -v circle -c blue -x 77.2498 -y 318.98993 -z 4
n -t 35.2549 -s 19 -S UP -v circle -c blue -x 426.9547 -y 161.97577 -z 4
n -t 35.516376 -s 9 -S UP -v circle -c blue -x 305.04562 -y 216.15137 -z 4
n -t 35.683693 -s 10 -S UP -v circle -c blue -x 322.057 -y 90.79936 -z 4
n -t 36.054893 -s 16 -S UP -v circle -c blue -x 352.28867 -y 135.54626 -z 4
n -t 36.170624 -s 10 -S UP -v circle -c blue -x 317.45718 -y 92.30718 -z 4
n -t 36.376556 -s 13 -S UP -v circle -c blue -x 293.78668 -y 228.02711 -z 4
n -t 36.551308 -s 14 -S UP -v circle -c blue -x 76.536385 -y 344.74835 -z 4
n -t 36.821632 -s 8 -S UP -v circle -c red -x 260.0242 -y 49.300144 -z 4
n -t 37.008617 -s 11 -S UP -v circle -c blue -x 224.47394 -y 210.33745 -z 4
n -t 37.134468 -s 14 -S UP -v circle -c blue -x 66.01913 -y 342.34976 -z 4
n -t 37.39108 -s 14 -S UP -v circle -c blue -x 65.894615 -y 345.38376 -z 4
n -t 37.626442 -s 6 -S UP -v circle -c red -x 403.57788 -y 135.84894 -z 4
n -t 37.814877 -s 9 -S UP -v circle -c blue -x 341.51083 -y 210.69672 -z 4
n -t 38.055508 -s 13 -S UP -v circle -c blue -x 295.10712 -y 222.31883 -z 4
n -t 38.280655 -s 19 -S UP -v circle -c blue -x 369.63763 -y 155.91711 -z 4
n -t 38.426777 -s 8 -S UP -v circle -c red -x 252.91742 -y 45.893394 -z 4
n -t 38.922493 -s 10 -S UP -v circle -c blue -x 349.9917 -y 69.251434 -z 4
n -t 38.987114 -s 6 -S UP -v circle -c red -x 383.79404 -y 131.22151 -z 4
n -t 39.05671 -s 6 -S UP -v circle -c red -x 384.6321 -y 131.92365 -z 4
n -t 39.06947 -s 17 -S UP -v circle -c blue -x 40.426785 -y 241.00185 -z 4
n -t 39.210983 -s 11 -S UP -v circle -c blue -x 233.91708 -y 208.79744 -z 4
n -t 39.217545 -s 11 -S UP -v circle -c blue -x 234.00403 -y 208.7588 -z 4
n -t 39.267635 -s 9 -S UP -v circle -c blue -x 334.89648 -y 216.93884 -z 4
n -t 39.394157 -s 8 -S UP -v circle -c red -x 252.35503 -y 38.065937 -z 4
n -t 39.45094 -s 11 -S UP -v circle -c blue -x 236.27455 -y 209.8323 -z 4
n -t 39.57258 -s 8 -S UP -v circle -c red -x 252.45724 -y 39.39307 -z 4
n -t 39.617367 -s 13 -S UP -v circle -c blue -x 291.11636 -y 199.52692 -z 4
n -t 39.726868 -s 17 -S UP -v circle -c blue -x 40.141773 -y 241.12323 -z 4
n -t 40.036552 -s 6 -S UP -v circle -c red -x 387.0525 -y 140.06935 -z 4
n -t 40.29694 -s 10 -S UP -v circle -c blue -x 353.0926 -y 80.1228 -z 4
n -t 40.3344 -s 8 -S UP -v circle -c red -x 246.29572 -y 41.285477 -z 4
n -t 40.407444 -s 9 -S UP -v circle -c blue -x 318.82214 -y 229.65227 -z 4
n -t 40.665257 -s 6 -S UP -v circle -c red -x 385.9892 -y 151.64767 -z 4
n -t 41.075775 -s 6 -S UP -v circle -c red -x 383.70676 -y 155.4598 -z 4
n -t 41.20788 -s 6 -S UP -v circle -c red -x 383.82172 -y 157.06197 -z 4
n -t 41.347755 -s 9 -S UP -v circle -c blue -x 317.5782 -y 212.6657 -z 4
n -t 41.400642 -s 6 -S UP -v circle -c red -x 382.37753 -y 156.87387 -z 4
n -t 41.796406 -s 6 -S UP -v circle -c red -x 380.39642 -y 153.53522 -z 4
n -t 42.251152 -s 17 -S UP -v circle -c blue -x 38.91099 -y 252.32832 -z 4
n -t 42.74791 -s 18 -S UP -v circle -c blue -x 237.44713 -y 244.25713 -z 4
n -t 43.11748 -s 9 -S UP -v circle -c blue -x 313.70114 -y 192.50085 -z 4
n -t 43.158962 -s 17 -S UP -v circle -c blue -x 29.326763 -y 241.27681 -z 4
n -t 43.648407 -s 6 -S UP -v circle -c red -x 380.58432 -y 142.97571 -z 4
n -t 43.928997 -s 11 -S UP -v circle -c blue -x 214.55087 -y 237.60767 -z 4
n -t 44.64502 -s 11 -S UP -v circle -c blue -x 212.44911 -y 225.13705 -z 4
n -t 44.814087 -s 9 -S UP -v circle -c blue -x 301.74188 -y 196.30501 -z 4
n -t 47.09996 -s 11 -S UP -v circle -c blue -x 191.35168 -y 220.739 -z 4
n -t 47.320923 -s 15 -S UP -v circle -c blue -x 270.61862 -y 373.68362 -z 4
n -t 47.91556 -s 11 -S UP -v circle -c blue -x 176.21013 -y 221.50066 -z 4
n -t 48.137325 -s 18 -S UP -v circle -c blue -x 224.83372 -y 209.83612 -z 4
n -t 48.47249 -s 9 -S UP -v circle -c blue -x 309.7854 -y 176.31224 -z 4
n -t 48.581146 -s 20 -S UP -v circle -c blue -x 403.9479 -y 75.47531 -z 4
n -t 48.832855 -s 20 -S UP -v circle -c blue -x 403.21222 -y 77.74205 -z 4
n -t 49.185497 -s 16 -S UP -v circle -c blue -x 322.98672 -y 166.5131 -z 4
n -t 49.230335 -s 16 -S UP -v circle -c blue -x 322.3242 -y 166.8657 -z 4
n -t 49.43014 -s 6 -S UP -v circle -c red -x 321.58054 -y 99.198006 -z 4
n -t 49.811592 -s 9 -S UP -v circle -c blue -x 302.30533 -y 195.9635 -z 4
n -t 49.894882 -s 16 -S UP -v circle -c blue -x 324.26065 -y 168.78253 -z 4
n -t 50.17826 -s 13 -S UP -v circle -c blue -x 279.37704 -y 205.70132 -z 4
n -t 50.210484 -s 11 -S UP -v circle -c blue -x 202.40048 -y 217.3436 -z 4
n -t 50.217022 -s 6 -S UP -v circle -c red -x 317.49713 -y 113.691895 -z 4
n -t 50.61449 -s 6 -S UP -v circle -c red -x 318.25296 -y 116.2465 -z 4
n -t 50.770485 -s 9 -S UP -v circle -c blue -x 302.2281 -y 187.91302 -z 4
n -t 51.696354 -s 20 -S UP -v circle -c blue -x 396.6346 -y 74.731865 -z 4
n -t 51.800343 -s 11 -S UP -v circle -c blue -x 186.86551 -y 218.31903 -z 4
n -t 51.811195 -s 11 -S UP -v circle -c blue -x 186.68396 -y 218.23656 -z 4
n -t 51.944942 -s 13 -S UP -v circle -c blue -x 283.18698 -y 225.77179 -z 4
n -t 52.149597 -s 18 -S UP -v circle -c blue -x 192.48944 -y 184.74101 -z 4
n -t 52.349236 -s 18 -S UP -v circle -c blue -x 191.03195 -y 181.25258 -z 4
n -t 52.87809 -s 16 -S UP -v circle -c blue -x 328.441 -y 166.57965 -z 4
n -t 52.884495 -s 15 -S UP -v circle -c blue -x 264.09326 -y 354.47977 -z 4
n -t 52.89812 -s 15 -S UP -v circle -c blue -x 264.16275 -y 354.2558 -z 4
n -t 53.62113 -s 16 -S UP -v circle -c blue -x 336.66812 -y 175.26791 -z 4
n -t 53.989304 -s 14 -S UP -v circle -c blue -x 73.54687 -y 341.80484 -z 4
n -t 55.20917 -s 8 -S UP -v circle -c red -x 245.61623 -y 49.118675 -z 4
n -t 55.97278 -s 17 -S UP -v circle -c blue -x 29.299227 -y 223.98836 -z 4
n -t 56.140118 -s 13 -S UP -v circle -c blue -x 279.03064 -y 237.93988 -z 4
n -t 56.215397 -s 20 -S UP -v circle -c blue -x 335.08154 -y 91.58004 -z 4
n -t 56.319717 -s 15 -S UP -v circle -c blue -x 257.43192 -y 376.2314 -z 4
n -t 56.996998 -s 6 -S UP -v circle -c red -x 285.68307 -y 112.585106 -z 4
n -t 57.151165 -s 17 -S UP -v circle -c blue -x 35.958504 -y 241.3801 -z 4
n -t 57.39303 -s 16 -S UP -v circle -c blue -x 364.0943 -y 147.79202 -z 4
n -t 57.402206 -s 15 -S UP -v circle -c blue -x 255.93356 -y 357.537 -z 4
n -t 57.457943 -s 13 -S UP -v circle -c blue -x 295.4956 -y 217.82974 -z 4
n -t 57.579754 -s 7 -S UP -v circle -c red -x 330.05606 -y 214.82013 -z 4
n -t 57.90397 -s 17 -S UP -v circle -c blue -x 39.588 -y 251.24048 -z 4
n -t 57.924397 -s 14 -S UP -v circle -c blue -x 30.074183 -y 301.0339 -z 4
n -t 58.212616 -s 16 -S UP -v circle -c blue -x 361.56857 -y 147.2132 -z 4
n -t 58.27011 -s 16 -S UP -v circle -c blue -x 361.1216 -y 146.64772 -z 4
n -t 58.285755 -s 17 -S UP -v circle -c blue -x 39.57244 -y 248.45789 -z 4
n -t 58.50807 -s 20 -S UP -v circle -c blue -x 337.30646 -y 102.91035 -z 4
n -t 58.94785 -s 7 -S UP -v circle -c red -x 329.49655 -y 190.076 -z 4
n -t 58.984375 -s 13 -S UP -v circle -c blue -x 319.06293 -y 226.44382 -z 4
n -t 58.991528 -s 13 -S UP -v circle -c blue -x 319.08182 -y 226.38097 -z 4
n -t 59.4287 -s 15 -S UP -v circle -c blue -x 270.31635 -y 347.88028 -z 4
n -t 59.805103 -s 7 -S UP -v circle -c red -x 330.01657 -y 178.24039 -z 4
n -t 60.3706 -s 10 -S UP -v circle -c blue -x 289.46255 -y 118.15486 -z 4
n -t 60.722427 -s 13 -S UP -v circle -c blue -x 297.09464 -y 228.5966 -z 4
n -t 61.09875 -s 19 -S UP -v circle -c blue -x 390.93628 -y 170.28125 -z 4
n -t 61.21803 -s 8 -S UP -v circle -c red -x 320.61893 -y 68.72288 -z 4
n -t 61.2234 -s 17 -S UP -v circle -c blue -x 33.33998 -y 237.09843 -z 4
n -t 61.233345 -s 14 -S UP -v circle -c blue -x 54.77684 -y 298.38876 -z 4
n -t 61.27118 -s 20 -S UP -v circle -c blue -x 308.8889 -y 128.16461 -z 4
n -t 61.38856 -s 20 -S UP -v circle -c blue -x 307.62704 -y 128.10867 -z 4
n -t 61.445423 -s 20 -S UP -v circle -c blue -x 307.111 -y 127.85138 -z 4
n -t 61.521816 -s 16 -S UP -v circle -c blue -x 368.05045 -y 191.23775 -z 4
n -t 61.71234 -s 20 -S UP -v circle -c blue -x 304.6158 -y 127.01876 -z 4
n -t 61.746273 -s 19 -S UP -v circle -c blue -x 392.14322 -y 168.42305 -z 4
n -t 61.866814 -s 20 -S UP -v circle -c blue -x 305.33972 -y 127.48301 -z 4
n -t 61.886593 -s 8 -S UP -v circle -c red -x 319.54718 -y 59.572186 -z 4
n -t 62.186775 -s 7 -S UP -v circle -c red -x 333.7659 -y 210.58954 -z 4
n -t 62.19941 -s 7 -S UP -v circle -c red -x 333.8657 -y 210.41733 -z 4
n -t 62.568928 -s 14 -S UP -v circle -c blue -x 60.106552 -y 324.41266 -z 4
n -t 62.814373 -s 7 -S UP -v circle -c red -x 328.48807 -y 200.30905 -z 4
n -t 62.89628 -s 7 -S UP -v circle -c red -x 328.2222 -y 199.92921 -z 4
n -t 62.910458 -s 8 -S UP -v circle -c red -x 332.8393 -y 68.625435 -z 4
n -t 63.223167 -s 7 -S UP -v circle -c red -x 322.9803 -y 197.27658 -z 4
n -t 63.232746 -s 8 -S UP -v circle -c red -x 334.4205 -y 64.83732 -z 4
n -t 63.454 -s 16 -S UP -v circle -c blue -x 346.39197 -y 180.67227 -z 4
n -t 63.51867 -s 10 -S UP -v circle -c blue -x 288.0304 -y 110.25859 -z 4
n -t 63.679783 -s 13 -S UP -v circle -c blue -x 287.53754 -y 241.03995 -z 4
n -t 63.740536 -s 7 -S UP -v circle -c red -x 318.20465 -y 195.8132 -z 4
n -t 63.89437 -s 8 -S UP -v circle -c red -x 332.22067 -y 70.70018 -z 4
n -t 64.036964 -s 8 -S UP -v circle -c red -x 330.9595 -y 71.24239 -z 4
n -t 64.06355 -s 19 -S UP -v circle -c blue -x 412.0852 -y 175.63068 -z 4
n -t 64.17224 -s 14 -S UP -v circle -c blue -x 55.15299 -y 337.16293 -z 4
n -t 64.41611 -s 8 -S UP -v circle -c red -x 329.28387 -y 69.551575 -z 4
n -t 64.498505 -s 19 -S UP -v circle -c blue -x 413.7012 -y 171.52448 -z 4
n -t 64.51174 -s 10 -S UP -v circle -c blue -x 303.82867 -y 105.673874 -z 4
n -t 64.73761 -s 14 -S UP -v circle -c blue -x 59.79222 -y 340.96686 -z 4
n -t 64.81217 -s 20 -S UP -v circle -c blue -x 337.5852 -y 125.21413 -z 4
n -t 65.16246 -s 20 -S UP -v circle -c blue -x 343.09525 -y 125.49957 -z 4
n -t 65.4971 -s 13 -S UP -v circle -c blue -x 263.75775 -y 249.77983 -z 4
n -t 65.54371 -s 16 -S UP -v circle -c blue -x 342.38025 -y 185.27632 -z 4
n -t 65.611275 -s 13 -S UP -v circle -c blue -x 264.69083 -y 248.46248 -z 4
n -t 65.85486 -s 17 -S UP -v circle -c blue -x 43.423454 -y 244.78165 -z 4
n -t 65.88174 -s 17 -S UP -v circle -c blue -x 43.32734 -y 245.12535 -z 4
n -t 65.95959 -s 15 -S UP -v circle -c blue -x 277.2924 -y 348.35068 -z 4
n -t 65.96637 -s 11 -S UP -v circle -c blue -x 168.85567 -y 179.87833 -z 4
n -t 66.42459 -s 18 -S UP -v circle -c blue -x 191.43115 -y 162.45885 -z 4
n -t 66.69053 -s 10 -S UP -v circle -c blue -x 282.27158 -y 127.08824 -z 4
n -t 66.84381 -s 15 -S UP -v circle -c blue -x 268.1608 -y 353.79218 -z 4
n -t 66.93218 -s 13 -S UP -v circle -c blue -x 273.68057 -y 265.20724 -z 4
n -t 66.96847 -s 13 -S UP -v circle -c blue -x 273.8961 -y 265.1718 -z 4
n -t 67.16543 -s 20 -S UP -v circle -c blue -x 306.67105 -y 135.0141 -z 4
n -t 67.25446 -s 15 -S UP -v circle -c blue -x 268.5186 -y 346.91055 -z 4
n -t 67.45234 -s 10 -S UP -v circle -c blue -x 279.13287 -y 129.78796 -z 4
n -t 67.69543 -s 20 -S UP -v circle -c blue -x 308.63663 -y 143.65111 -z 4
n -t 68.12743 -s 17 -S UP -v circle -c blue -x 47.939835 -y 249.62321 -z 4
n -t 68.17824 -s 10 -S UP -v circle -c blue -x 276.46265 -y 120.30978 -z 4
n -t 68.456314 -s 14 -S UP -v circle -c blue -x 101.13341 -y 336.2127 -z 4
n -t 69.11028 -s 7 -S UP -v circle -c red -x 322.57825 -y 189.82747 -z 4
n -t 69.51886 -s 10 -S UP -v circle -c blue -x 288.04492 -y 126.497765 -z 4
n -t 69.841866 -s 7 -S UP -v circle -c red -x 321.8603 -y 186.07158 -z 4
n -t 69.92159 -s 10 -S UP -v circle -c blue -x 284.29825 -y 120.15795 -z 4
n -t 70.0164 -s 19 -S UP -v circle -c blue -x 437.5733 -y 192.34714 -z 4
n -t 70.17908 -s 7 -S UP -v circle -c red -x 322.2608 -y 180.63638 -z 4
n -t 70.35971 -s 10 -S UP -v circle -c blue -x 277.3991 -y 115.270615 -z 4
n -t 70.44977 -s 17 -S UP -v circle -c blue -x 41.537186 -y 225.99706 -z 4
n -t 70.6113 -s 20 -S UP -v circle -c blue -x 311.01923 -y 121.93659 -z 4
n -t 70.690254 -s 20 -S UP -v circle -c blue -x 312.3132 -y 121.34836 -z 4
n -t 70.8018 -s 14 -S UP -v circle -c blue -x 118.04747 -y 352.27716 -z 4
n -t 70.86804 -s 14 -S UP -v circle -c blue -x 119.19648 -y 351.91818 -z 4
n -t 70.9774 -s 7 -S UP -v circle -c red -x 311.73254 -y 180.16019 -z 4
n -t 71.07319 -s 19 -S UP -v circle -c blue -x 442.55426 -y 192.28876 -z 4
n -t 71.136086 -s 7 -S UP -v circle -c red -x 309.69125 -y 180.37599 -z 4
n -t 71.26126 -s 8 -S UP -v circle -c red -x 298.4399 -y 58.806396 -z 4
n -t 71.57442 -s 14 -S UP -v circle -c blue -x 114.47573 -y 358.15884 -z 4
n -t 71.8579 -s 6 -S UP -v circle -c red -x 238.71184 -y 94.81293 -z 4
n -t 71.92051 -s 19 -S UP -v circle -c blue -x 456.1922 -y 185.56374 -z 4
n -t 71.925354 -s 20 -S UP -v circle -c blue -x 318.1628 -y 126.44463 -z 4
n -t 72.05787 -s 10 -S UP -v circle -c blue -x 300.9384 -y 104.947716 -z 4
n -t 72.13812 -s 18 -S UP -v circle -c blue -x 148.35895 -y 129.81543 -z 4
n -t 72.145065 -s 15 -S UP -v circle -c blue -x 270.95956 -y 347.62918 -z 4
n -t 72.2172 -s 9 -S UP -v circle -c blue -x 345.69812 -y 211.57184 -z 4
n -t 72.323074 -s 6 -S UP -v circle -c red -x 241.53633 -y 93.33645 -z 4
n -t 72.77261 -s 20 -S UP -v circle -c blue -x 320.72867 -y 127.29104 -z 4
n -t 72.7926 -s 10 -S UP -v circle -c blue -x 304.65982 -y 98.71748 -z 4
n -t 72.896515 -s 8 -S UP -v circle -c red -x 286.20847 -y 42.60081 -z 4
n -t 72.92874 -s 10 -S UP -v circle -c blue -x 302.47656 -y 97.52776 -z 4
n -t 73.00134 -s 19 -S UP -v circle -c blue -x 459.57648 -y 178.9312 -z 4
n -t 73.05435 -s 6 -S UP -v circle -c red -x 240.87323 -y 90.069466 -z 4
n -t 73.116714 -s 9 -S UP -v circle -c blue -x 354.2486 -y 202.76038 -z 4
n -t 73.26542 -s 17 -S UP -v circle -c blue -x 32.276512 -y 239.0024 -z 4
n -t 73.79052 -s 14 -S UP -v circle -c blue -x 107.35797 -y 372.0399 -z 4
n -t 73.85002 -s 18 -S UP -v circle -c blue -x 151.25818 -y 129.53001 -z 4
n -t 73.87078 -s 9 -S UP -v circle -c blue -x 365.43207 -y 209.56334 -z 4
n -t 73.99299 -s 18 -S UP -v circle -c blue -x 150.61562 -y 130.08069 -z 4
n -t 74.16138 -s 15 -S UP -v circle -c blue -x 249.5375 -y 358.08533 -z 4
n -t 74.23482 -s 15 -S UP -v circle -c blue -x 249.86278 -y 356.79065 -z 4
n -t 74.39364 -s 9 -S UP -v circle -c blue -x 363.00778 -y 216.77983 -z 4
n -t 75.493706 -s 19 -S UP -v circle -c blue -x 454.82065 -y 180.60132 -z 4
n -t 75.55865 -s 13 -S UP -v circle -c blue -x 285.59277 -y 253.2476 -z 4
n -t 75.64543 -s 9 -S UP -v circle -c blue -x 351.2369 -y 220.61577 -z 4
n -t 75.71131 -s 13 -S UP -v circle -c blue -x 283.74692 -y 254.94768 -z 4
n -t 75.7982 -s 14 -S UP -v circle -c blue -x 138.56229 -y 374.66302 -z 4
n -t 75.84944 -s 6 -S UP -v circle -c red -x 231.97221 -y 135.18877 -z 4
n -t 75.95907 -s 10 -S UP -v circle -c blue -x 298.0305 -y 108.71713 -z 4
n -t 76.03709 -s 18 -S UP -v circle -c blue -x 155.22209 -y 136.47919 -z 4
n -t 76.125374 -s 17 -S UP -v circle -c blue -x 40.449757 -y 243.16214 -z 4
n -t 76.53527 -s 8 -S UP -v circle -c red -x 286.91766 -y 47.09995 -z 4
n -t 76.72784 -s 15 -S UP -v circle -c blue -x 240.94656 -y 372.28076 -z 4
n -t 76.88262 -s 10 -S UP -v circle -c blue -x 290.38846 -y 110.56466 -z 4
n -t 76.92168 -s 6 -S UP -v circle -c red -x 234.00183 -y 123.564674 -z 4
n -t 77.30208 -s 10 -S UP -v circle -c blue -x 291.97073 -y 108.10313 -z 4
n -t 77.40912 -s 9 -S UP -v circle -c blue -x 343.15417 -y 209.743 -z 4
n -t 77.64392 -s 19 -S UP -v circle -c blue -x 422.9082 -y 169.49254 -z 4
n -t 77.65574 -s 9 -S UP -v circle -c blue -x 347.5241 -y 209.2398 -z 4
n -t 77.85175 -s 8 -S UP -v circle -c red -x 276.48862 -y 59.251934 -z 4
n -t 78.06152 -s 8 -S UP -v circle -c red -x 273.87817 -y 61.05258 -z 4
n -t 78.07937 -s 7 -S UP -v circle -c red -x 295.53934 -y 160.64767 -z 4
n -t 78.26739 -s 15 -S UP -v circle -c blue -x 237.69989 -y 381.74536 -z 4
n -t 78.84727 -s 10 -S UP -v circle -c blue -x 289.86795 -y 117.54237 -z 4
n -t 79.589615 -s 18 -S UP -v circle -c blue -x 124.48852 -y 103.21897 -z 4
n -t 79.64843 -s 7 -S UP -v circle -c red -x 308.52374 -y 172.41214 -z 4
n -t 79.679794 -s 18 -S UP -v circle -c blue -x 124.27122 -y 101.56996 -z 4
n -t 79.975845 -s 14 -S UP -v circle -c blue -x 159.33208 -y 341.77798 -z 4
n -t 80.09807 -s 7 -S UP -v circle -c red -x 311.84824 -y 165.46744 -z 4
n -t 80.19979 -s 9 -S UP -v circle -c blue -x 359.622 -y 210.72179 -z 4
n -t 80.32702 -s 8 -S UP -v circle -c red -x 305.89896 -y 72.717865 -z 4
n -t 80.43332 -s 10 -S UP -v circle -c blue -x 294.26666 -y 107.35044 -z 4
n -t 80.58467 -s 8 -S UP -v circle -c red -x 309.5617 -y 73.48916 -z 4
n -t 80.593155 -s 18 -S UP -v circle -c blue -x 126.92069 -y 92.913734 -z 4
n -t 80.718666 -s 9 -S UP -v circle -c blue -x 357.83615 -y 209.12688 -z 4
n -t 80.90984 -s 9 -S UP -v circle -c blue -x 354.32974 -y 210.28114 -z 4
n -t 81.26847 -s 15 -S UP -v circle -c blue -x 230.01735 -y 384.29477 -z 4
n -t 81.675514 -s 7 -S UP -v circle -c red -x 299.74878 -y 177.18556 -z 4
n -t 81.97003 -s 15 -S UP -v circle -c blue -x 230.26465 -y 372.97272 -z 4
n -t 82.40046 -s 8 -S UP -v circle -c red -x 305.6094 -y 83.71511 -z 4
n -t 83.19019 -s 9 -S UP -v circle -c blue -x 364.36722 -y 187.64252 -z 4
n -t 83.34712 -s 8 -S UP -v circle -c red -x 300.33102 -y 90.786896 -z 4
n -t 83.39057 -s 9 -S UP -v circle -c blue -x 365.03015 -y 184.12177 -z 4