# Trace file generated by Jist/Swans Version 1.0.6. at Wed May 29 01:17:03 BRT 2013
V -t * -v 1.0a5 -a 0
W -t * -x 410 -y 410
A -t * -n 1 -p 0 -o 0xffffffff -c 31 -a 1
A -t * -h 1 -m 2147483647 -s 0
n -t 0.0 -s 1 -S UP -v circle -c red -x 73.99809 -y 431.74887 -z 4
n -t 0.0 -s 2 -S UP -v circle -c red -x 137.66402 -y 495.61673 -z 4
n -t 0.0 -s 3 -S UP -v circle -c red -x 391.1143 -y 491.62927 -z 4
n -t 0.0 -s 4 -S UP -v circle -c red -x 499.38632 -y 31.027645 -z 4
n -t 0.0 -s 5 -S UP -v circle -c red -x 329.03796 -y 289.72787 -z 4
n -t 0.0 -s 6 -S UP -v circle -c red -x 358.65494 -y 24.55908 -z 4
n -t 0.0 -s 7 -S UP -v circle -c red -x 216.01093 -y 348.2225 -z 4
n -t 0.0 -s 8 -S UP -v circle -c red -x 446.95618 -y 150.53374 -z 4
n -t 0.0 -s 9 -S UP -v circle -c blue -x 477.18756 -y 138.62425 -z 4
n -t 0.0 -s 10 -S UP -v circle -c blue -x 17.514616 -y 134.16779 -z 4
n -t 0.0 -s 11 -S UP -v circle -c blue -x 319.26114 -y 310.9277 -z 4
n -t 0.0 -s 12 -S UP -v circle -c blue -x 224.66566 -y 99.85885 -z 4
n -t 0.0 -s 13 -S UP -v circle -c blue -x 433.11337 -y 188.83505 -z 4
n -t 0.0 -s 14 -S UP -v circle -c blue -x 273.6849 -y 374.6567 -z 4
n -t 0.0 -s 15 -S UP -v circle -c blue -x 433.16333 -y 136.03238 -z 4
n -t 0.0 -s 16 -S UP -v circle -c blue -x 160.68787 -y 324.33258 -z 4
n -t 0.0 -s 17 -S UP -v circle -c blue -x 343.7293 -y 65.80809 -z 4
n -t 0.0 -s 18 -S UP -v circle -c blue -x 497.14963 -y 116.54416 -z 4
n -t 0.0 -s 19 -S UP -v circle -c blue -x 3.3197105 -y 228.78096 -z 4
n -t 0.0 -s 20 -S UP -v circle -c blue -x 493.28513 -y 194.05215 -z 4
n -t 0.0 -s 21 -S UP -v circle -c blue -x 172.58981 -y 213.81297 -z 4
n -t 0.0 -s 22 -S UP -v circle -c blue -x 462.19867 -y 2.0558238 -z 4
n -t 0.0 -s 23 -S UP -v circle -c blue -x 278.17798 -y 226.44252 -z 4
n -t 0.0 -s 24 -S UP -v circle -c blue -x 60.26751 -y 409.68103 -z 4
n -t 0.0 -s 25 -S UP -v circle -c blue -x 97.40311 -y 331.93198 -z 4
n -t 0.0 -s 26 -S UP -v circle -c blue -x 436.264 -y 144.62492 -z 4
n -t 0.0 -s 27 -S UP -v circle -c blue -x 24.674892 -y 29.27068 -z 4
n -t 0.0 -s 28 -S UP -v circle -c blue -x 364.53372 -y 481.01328 -z 4
n -t 0.0 -s 29 -S UP -v circle -c blue -x 463.4477 -y 344.635 -z 4
n -t 0.0 -s 30 -S UP -v circle -c blue -x 58.098705 -y 278.68323 -z 4
n -t 0.0 -s 1 -S UP -v circle -c red -x 73.99809 -y 431.74887 -z 4
n -t 0.0 -s 3 -S UP -v circle -c red -x 391.1143 -y 491.62927 -z 4
n -t 0.0 -s 7 -S UP -v circle -c red -x 216.01093 -y 348.2225 -z 4
n -t 0.0 -s 15 -S UP -v circle -c blue -x 433.16333 -y 136.03238 -z 4
n -t 0.0 -s 16 -S UP -v circle -c blue -x 160.68787 -y 324.33258 -z 4
n -t 0.0 -s 8 -S UP -v circle -c red -x 446.95618 -y 150.53374 -z 4
n -t 0.0 -s 17 -S UP -v circle -c blue -x 343.7293 -y 65.80809 -z 4
n -t 0.0 -s 18 -S UP -v circle -c blue -x 497.14963 -y 116.54416 -z 4
n -t 0.0 -s 4 -S UP -v circle -c red -x 499.38632 -y 31.027645 -z 4
n -t 0.0 -s 9 -S UP -v circle -c blue -x 477.18756 -y 138.62425 -z 4
n -t 0.0 -s 19 -S UP -v circle -c blue -x 3.3197105 -y 228.78096 -z 4
n -t 0.0 -s 20 -S UP -v circle -c blue -x 493.28513 -y 194.05215 -z 4
n -t 0.0 -s 10 -S UP -v circle -c blue -x 17.514616 -y 134.16779 -z 4
n -t 0.0 -s 21 -S UP -v circle -c blue -x 172.58981 -y 213.81297 -z 4
n -t 0.0 -s 22 -S UP -v circle -c blue -x 462.19867 -y 2.0558238 -z 4
n -t 0.0 -s 2 -S UP -v circle -c red -x 137.66402 -y 495.61673 -z 4
n -t 0.0 -s 5 -S UP -v circle -c red -x 329.03796 -y 289.72787 -z 4
n -t 0.0 -s 11 -S UP -v circle -c blue -x 319.26114 -y 310.9277 -z 4
n -t 0.0 -s 23 -S UP -v circle -c blue -x 278.17798 -y 226.44252 -z 4
n -t 0.0 -s 24 -S UP -v circle -c blue -x 60.26751 -y 409.68103 -z 4
n -t 0.0 -s 12 -S UP -v circle -c blue -x 224.66566 -y 99.85885 -z 4
n -t 0.0 -s 25 -S UP -v circle -c blue -x 97.40311 -y 331.93198 -z 4
n -t 0.0 -s 26 -S UP -v circle -c blue -x 436.264 -y 144.62492 -z 4
n -t 0.0 -s 6 -S UP -v circle -c red -x 358.65494 -y 24.55908 -z 4
n -t 0.0 -s 13 -S UP -v circle -c blue -x 433.11337 -y 188.83505 -z 4
n -t 0.0 -s 27 -S UP -v circle -c blue -x 24.674892 -y 29.27068 -z 4
n -t 0.0 -s 28 -S UP -v circle -c blue -x 364.53372 -y 481.01328 -z 4
n -t 0.0 -s 14 -S UP -v circle -c blue -x 273.6849 -y 374.6567 -z 4
n -t 0.0 -s 29 -S UP -v circle -c blue -x 463.4477 -y 344.635 -z 4
n -t 0.0 -s 30 -S UP -v circle -c blue -x 58.098705 -y 278.68323 -z 4
n -t 0.032247797 -s 21 -S UP -v circle -c blue -x 172.40884 -y 213.88611 -z 4
n -t 0.09424964 -s 4 -S UP -v circle -c red -x 499.91248 -y 31.485533 -z 4
n -t 0.24170211 -s 28 -S UP -v circle -c blue -x 360.70273 -y 478.97958 -z 4
n -t 0.2950149 -s 17 -S UP -v circle -c blue -x 348.88004 -y 64.41737 -z 4
n -t 0.32882258 -s 8 -S UP -v circle -c red -x 449.29672 -y 156.47714 -z 4
n -t 0.34234464 -s 4 -S UP -v circle -c red -x 498.2259 -y 33.169235 -z 4
n -t 0.38167787 -s 6 -S UP -v circle -c red -x 364.73856 -y 28.993418 -z 4
n -t 0.40108618 -s 12 -S UP -v circle -c blue -x 227.1002 -y 105.14632 -z 4
n -t 0.40546617 -s 20 -S UP -v circle -c blue -x 490.97113 -y 196.3815 -z 4
n -t 0.46584526 -s 13 -S UP -v circle -c blue -x 434.85977 -y 193.0625 -z 4
n -t 0.5112765 -s 22 -S UP -v circle -c blue -x 459.8471 -y 9.976256 -z 4
n -t 0.5116552 -s 9 -S UP -v circle -c blue -x 467.94846 -y 142.61307 -z 4
n -t 0.5584325 -s 19 -S UP -v circle -c blue -x 5.2953525 -y 232.33525 -z 4
n -t 0.57626945 -s 30 -S UP -v circle -c blue -x 56.294716 -y 270.926 -z 4
n -t 0.57948977 -s 24 -S UP -v circle -c blue -x 66.94163 -y 401.04788 -z 4
n -t 0.6294287 -s 30 -S UP -v circle -c blue -x 55.634815 -y 270.69604 -z 4
n -t 0.6840874 -s 20 -S UP -v circle -c blue -x 486.9107 -y 193.4476 -z 4
n -t 1.0243341 -s 29 -S UP -v circle -c blue -x 454.19034 -y 354.03098 -z 4
n -t 1.3538015 -s 4 -S UP -v circle -c red -x 486.54657 -y 28.0615 -z 4
n -t 1.5660765 -s 29 -S UP -v circle -c blue -x 454.33334 -y 350.54257 -z 4
n -t 1.699281 -s 17 -S UP -v circle -c blue -x 327.98666 -y 81.53958 -z 4
n -t 1.7212758 -s 16 -S UP -v circle -c blue -x 182.44516 -y 342.81683 -z 4
n -t 1.7891631 -s 22 -S UP -v circle -c blue -x 457.72882 -y 6.021356 -z 4
n -t 1.910842 -s 10 -S UP -v circle -c blue -x 28.493622 -y 109.84719 -z 4
n -t 1.9359751 -s 19 -S UP -v circle -c blue -x 6.1818247 -y 231.09888 -z 4
n -t 2.0854557 -s 3 -S UP -v circle -c red -x 398.28125 -y 498.30054 -z 4
n -t 2.1111243 -s 29 -S UP -v circle -c blue -x 459.7572 -y 351.213 -z 4
n -t 2.1613696 -s 3 -S UP -v circle -c red -x 398.24643 -y 497.09122 -z 4
n -t 2.248637 -s 19 -S UP -v circle -c blue -x 4.072388 -y 232.5584 -z 4
n -t 2.349146 -s 17 -S UP -v circle -c blue -x 324.2942 -y 91.51973 -z 4
n -t 2.4152513 -s 17 -S UP -v circle -c blue -x 323.7289 -y 91.194695 -z 4
n -t 2.5147595 -s 16 -S UP -v circle -c blue -x 169.19878 -y 336.1012 -z 4
n -t 2.6440282 -s 16 -S UP -v circle -c blue -x 169.91527 -y 333.84235 -z 4
n -t 2.6713843 -s 14 -S UP -v circle -c blue -x 282.6713 -y 370.14166 -z 4
n -t 2.7438343 -s 29 -S UP -v circle -c blue -x 457.75272 -y 345.24924 -z 4
n -t 2.7696297 -s 22 -S UP -v circle -c blue -x 469.05566 -y 4.541227 -z 4
n -t 3.1888986 -s 5 -S UP -v circle -c red -x 315.58112 -y 284.49228 -z 4
n -t 3.1986449 -s 8 -S UP -v circle -c red -x 487.27872 -y 141.66731 -z 4
n -t 3.2729368 -s 15 -S UP -v circle -c blue -x 383.87943 -y 100.33097 -z 4
n -t 3.3697886 -s 5 -S UP -v circle -c red -x 313.87762 -y 286.9686 -z 4
n -t 3.4129014 -s 21 -S UP -v circle -c blue -x 171.02542 -y 170.55139 -z 4
n -t 3.4286175 -s 29 -S UP -v circle -c blue -x 470.7821 -y 346.88574 -z 4
n -t 3.5164711 -s 16 -S UP -v circle -c blue -x 158.34631 -y 336.76013 -z 4
n -t 3.6836898 -s 27 -S UP -v circle -c blue -x 44.137703 -y 35.319653 -z 4
n -t 3.8365192 -s 8 -S UP -v circle -c red -x 496.7383 -y 150.09085 -z 4
n -t 3.8875523 -s 22 -S UP -v circle -c blue -x 453.8702 -y 3.681631 -z 4
n -t 4.030113 -s 15 -S UP -v circle -c blue -x 385.84265 -y 90.48008 -z 4
n -t 4.0528092 -s 20 -S UP -v circle -c blue -x 477.22452 -y 219.68573 -z 4
n -t 4.280695 -s 22 -S UP -v circle -c blue -x 447.48224 -y 0.5424313 -z 4
n -t 4.468738 -s 16 -S UP -v circle -c blue -x 153.32059 -y 333.0626 -z 4
n -t 4.5807095 -s 22 -S UP -v circle -c blue -x 451.52927 -y 4.43368 -z 4
n -t 4.6817427 -s 4 -S UP -v circle -c red -x 473.91074 -y 16.318937 -z 4
n -t 4.6998224 -s 19 -S UP -v circle -c blue -x 39.098846 -y 224.9982 -z 4
n -t 4.8009844 -s 19 -S UP -v circle -c blue -x 39.324944 -y 223.72968 -z 4
n -t 4.868452 -s 19 -S UP -v circle -c blue -x 38.733307 -y 223.44896 -z 4
n -t 4.8923945 -s 27 -S UP -v circle -c blue -x 47.72236 -y 13.932164 -z 4
n -t 4.8947086 -s 11 -S UP -v circle -c blue -x 329.43637 -y 315.88013 -z 4
n -t 5.0129533 -s 24 -S UP -v circle -c blue -x 88.41147 -y 391.64792 -z 4
n -t 5.0201955 -s 30 -S UP -v circle -c blue -x 46.38326 -y 251.2137 -z 4
n -t 5.055297 -s 29 -S UP -v circle -c blue -x 475.18106 -y 362.16104 -z 4
n -t 5.1436753 -s 3 -S UP -v circle -c red -x 389.2885 -y 485.05078 -z 4
n -t 5.27611 -s 20 -S UP -v circle -c blue -x 484.93802 -y 200.30624 -z 4
n -t 5.4819884 -s 30 -S UP -v circle -c blue -x 39.180523 -y 252.07541 -z 4
n -t 5.6769233 -s 3 -S UP -v circle -c red -x 388.37766 -y 486.31787 -z 4
n -t 5.765717 -s 5 -S UP -v circle -c red -x 307.19818 -y 291.15158 -z 4
n -t 5.993915 -s 7 -S UP -v circle -c red -x 242.99571 -y 376.35645 -z 4
n -t 6.039889 -s 14 -S UP -v circle -c blue -x 305.69257 -y 389.72064 -z 4
n -t 6.3157663 -s 17 -S UP -v circle -c blue -x 331.3704 -y 29.628822 -z 4
n -t 6.4782 -s 29 -S UP -v circle -c blue -x 472.97244 -y 348.81567 -z 4
n -t 6.6358747 -s 11 -S UP -v circle -c blue -x 307.61884 -y 317.54453 -z 4
n -t 6.726108 -s 29 -S UP -v circle -c blue -x 471.5349 -y 350.14435 -z 4
n -t 7.0047207 -s 19 -S UP -v circle -c blue -x 58.2658 -y 203.58261 -z 4
n -t 7.1695127 -s 5 -S UP -v circle -c red -x 288.60233 -y 295.51248 -z 4
n -t 7.350006 -s 21 -S UP -v circle -c blue -x 188.08289 -y 169.22147 -z 4
n -t 7.5484138 -s 22 -S UP -v circle -c blue -x 451.9004 -y 10.685374 -z 4
n -t 7.5783005 -s 6 -S UP -v circle -c red -x 392.60135 -y 36.38579 -z 4
n -t 7.7915416 -s 17 -S UP -v circle -c blue -x 314.16956 -y 13.78692 -z 4
n -t 8.674376 -s 18 -S UP -v circle -c blue -x 471.58752 -y 102.52863 -z 4
n -t 8.769514 -s 7 -S UP -v circle -c red -x 267.00748 -y 417.25027 -z 4
n -t 8.823833 -s 7 -S UP -v circle -c red -x 266.09872 -y 417.09937 -z 4
n -t 8.847273 -s 17 -S UP -v circle -c blue -x 308.7394 -y 11.586597 -z 4
n -t 8.997304 -s 6 -S UP -v circle -c red -x 368.8607 -y 22.067064 -z 4
n -t 9.206071 -s 7 -S UP -v circle -c red -x 268.55502 -y 412.13605 -z 4
n -t 9.254404 -s 18 -S UP -v circle -c blue -x 462.31488 -y 108.13586 -z 4
n -t 9.259938 -s 18 -S UP -v circle -c blue -x 462.3364 -y 108.076256 -z 4
n -t 9.8412895 -s 21 -S UP -v circle -c blue -x 188.43402 -y 173.69592 -z 4
n -t 9.875549 -s 17 -S UP -v circle -c blue -x 301.22952 -y 4.2503877 -z 4
n -t 10.070963 -s 8 -S UP -v circle -c red -x 479.6168 -y 148.05367 -z 4
n -t 10.125571 -s 18 -S UP -v circle -c blue -x 465.58408 -y 102.13872 -z 4
n -t 10.273876 -s 19 -S UP -v circle -c blue -x 65.645355 -y 209.6725 -z 4
n -t 10.289582 -s 19 -S UP -v circle -c blue -x 65.944435 -y 209.75322 -z 4
n -t 10.784601 -s 29 -S UP -v circle -c blue -x 429.5967 -y 357.80823 -z 4
n -t 10.965721 -s 29 -S UP -v circle -c blue -x 428.928 -y 358.12857 -z 4
n -t 10.981195 -s 8 -S UP -v circle -c red -x 489.53766 -y 158.63843 -z 4
n -t 11.627567 -s 20 -S UP -v circle -c blue -x 477.8995 -y 222.87375 -z 4
n -t 11.651529 -s 15 -S UP -v circle -c blue -x 360.1745 -y 90.8395 -z 4
n -t 11.761833 -s 4 -S UP -v circle -c red -x 471.89215 -y 14.979392 -z 4
n -t 11.986111 -s 15 -S UP -v circle -c blue -x 354.13077 -y 93.60056 -z 4
n -t 12.089326 -s 25 -S UP -v circle -c blue -x 59.968655 -y 348.75632 -z 4
n -t 12.09747 -s 21 -S UP -v circle -c blue -x 207.92696 -y 154.47757 -z 4
n -t 12.098652 -s 14 -S UP -v circle -c blue -x 238.6563 -y 304.15842 -z 4
n -t 12.131923 -s 17 -S UP -v circle -c blue -x 291.89197 -y 3.8798802 -z 4
n -t 12.161007 -s 25 -S UP -v circle -c blue -x 60.04763 -y 348.52643 -z 4
n -t 12.338724 -s 21 -S UP -v circle -c blue -x 211.75902 -y 156.48181 -z 4
n -t 12.637186 -s 27 -S UP -v circle -c blue -x 33.641586 -y 32.511295 -z 4
n -t 12.686685 -s 23 -S UP -v circle -c blue -x 249.12363 -y 227.57265 -z 4
n -t 12.705358 -s 19 -S UP -v circle -c blue -x 52.326412 -y 202.03871 -z 4
n -t 12.728322 -s 17 -S UP -v circle -c blue -x 298.60898 -y 11.451484 -z 4
n -t 13.0177355 -s 21 -S UP -v circle -c blue -x 211.12715 -y 167.93852 -z 4
n -t 13.118653 -s 7 -S UP -v circle -c red -x 249.22728 -y 363.27582 -z 4
n -t 13.2715225 -s 15 -S UP -v circle -c blue -x 358.64767 -y 82.129295 -z 4
n -t 13.299727 -s 15 -S UP -v circle -c blue -x 358.9557 -y 81.9652 -z 4
n -t 13.482662 -s 8 -S UP -v circle -c red -x 490.49582 -y 175.05981 -z 4
n -t 13.49845 -s 4 -S UP -v circle -c red -x 484.5071 -y 15.595426 -z 4
n -t 13.627579 -s 23 -S UP -v circle -c blue -x 231.83684 -y 231.5568 -z 4
n -t 13.761895 -s 29 -S UP -v circle -c blue -x 452.6992 -y 366.10092 -z 4
n -t 13.880423 -s 27 -S UP -v circle -c blue -x 29.420876 -y 32.073627 -z 4
n -t 13.965622 -s 11 -S UP -v circle -c blue -x 230.25342 -y 242.10974 -z 4
n -t 14.155388 -s 28 -S UP -v circle -c blue -x 346.99667 -y 476.2526 -z 4
n -t 14.467861 -s 11 -S UP -v circle -c blue -x 222.92577 -y 240.25305 -z 4
n -t 14.640597 -s 28 -S UP -v circle -c blue -x 351.38458 -y 477.75528 -z 4
n -t 14.895719 -s 11 -S UP -v circle -c blue -x 220.20985 -y 232.25372 -z 4
n -t 14.957891 -s 11 -S UP -v circle -c blue -x 221.28883 -y 232.4302 -z 4
n -t 14.996121 -s 3 -S UP -v circle -c red -x 369.57147 -y 493.02747 -z 4
n -t 15.058412 -s 20 -S UP -v circle -c blue -x 477.92944 -y 224.07104 -z 4
n -t 15.124244 -s 17 -S UP -v circle -c blue -x 314.79233 -y 0.77422774 -z 4
n -t 15.332168 -s 15 -S UP -v circle -c blue -x 368.43948 -y 120.69659 -z 4
n -t 15.386014 -s 15 -S UP -v circle -c blue -x 367.94547 -y 120.13156 -z 4
n -t 15.655721 -s 14 -S UP -v circle -c blue -x 261.33093 -y 301.09152 -z 4
n -t 15.706056 -s 4 -S UP -v circle -c red -x 489.45285 -y 49.83802 -z 4
n -t 15.889084 -s 17 -S UP -v circle -c blue -x 316.50092 -y 11.4253645 -z 4
n -t 15.983708 -s 8 -S UP -v circle -c red -x 493.2074 -y 162.92603 -z 4
n -t 16.078516 -s 27 -S UP -v circle -c blue -x 8.588601 -y 18.19398 -z 4
n -t 16.11138 -s 27 -S UP -v circle -c blue -x 8.665745 -y 18.24966 -z 4
n -t 16.255083 -s 15 -S UP -v circle -c blue -x 372.1906 -y 130.95592 -z 4
n -t 16.270687 -s 29 -S UP -v circle -c blue -x 407.43115 -y 375.29312 -z 4
n -t 16.300386 -s 23 -S UP -v circle -c blue -x 259.164 -y 255.99304 -z 4
n -t 16.459019 -s 17 -S UP -v circle -c blue -x 322.44632 -y 5.3538656 -z 4
n -t 16.543974 -s 23 -S UP -v circle -c blue -x 261.84418 -y 254.56572 -z 4
n -t 16.560009 -s 3 -S UP -v circle -c red -x 355.34863 -y 482.52008 -z 4
n -t 16.576084 -s 8 -S UP -v circle -c red -x 492.45462 -y 174.2059 -z 4
n -t 16.63653 -s 21 -S UP -v circle -c blue -x 233.48128 -y 197.26015 -z 4
n -t 16.750816 -s 3 -S UP -v circle -c red -x 355.86765 -y 483.7458 -z 4
n -t 16.883453 -s 23 -S UP -v circle -c blue -x 265.7768 -y 252.4978 -z 4
n -t 17.112253 -s 15 -S UP -v circle -c blue -x 374.35934 -y 142.01782 -z 4
n -t 17.135616 -s 29 -S UP -v circle -c blue -x 413.83694 -y 379.82645 -z 4
n -t 17.14003 -s 8 -S UP -v circle -c red -x 498.7883 -y 173.01006 -z 4
n -t 17.702105 -s 17 -S UP -v circle -c blue -x 318.30637 -y 21.875116 -z 4
n -t 17.985527 -s 14 -S UP -v circle -c blue -x 283.85522 -y 313.608 -z 4
n -t 18.098913 -s 7 -S UP -v circle -c red -x 258.714 -y 342.8808 -z 4
n -t 18.106977 -s 4 -S UP -v circle -c red -x 468.1071 -y 40.907413 -z 4
n -t 18.183893 -s 14 -S UP -v circle -c blue -x 286.05127 -y 314.82663 -z 4
n -t 18.338717 -s 17 -S UP -v circle -c blue -x 319.97003 -y 29.725876 -z 4
n -t 18.603033 -s 5 -S UP -v circle -c red -x 315.03033 -y 219.43224 -z 4
n -t 18.813837 -s 29 -S UP -v circle -c blue -x 419.6195 -y 393.26355 -z 4
n -t 18.876263 -s 7 -S UP -v circle -c red -x 258.72382 -y 351.9755 -z 4
n -t 19.070421 -s 15 -S UP -v circle -c blue -x 369.36215 -y 161.82608 -z 4
n -t 19.293436 -s 3 -S UP -v circle -c red -x 347.98523 -y 497.2932 -z 4
n -t 19.468325 -s 8 -S UP -v circle -c red -x 497.70312 -y 171.82576 -z 4
n -t 19.528082 -s 21 -S UP -v circle -c blue -x 255.6741 -y 210.19997 -z 4
n -t 19.586124 -s 3 -S UP -v circle -c red -x 349.81976 -y 499.2854 -z 4
n -t 19.784626 -s 3 -S UP -v circle -c red -x 346.48218 -y 497.50946 -z 4
n -t 19.896442 -s 26 -S UP -v circle -c blue -x 438.23544 -y 159.95401 -z 4
n -t 19.932434 -s 28 -S UP -v circle -c blue -x 339.45898 -y 463.85016 -z 4
n -t 20.065674 -s 27 -S UP -v circle -c blue -x 18.530336 -y 26.163162 -z 4
n -t 20.398241 -s 21 -S UP -v circle -c blue -x 254.27461 -y 210.60309 -z 4
n -t 20.797148 -s 21 -S UP -v circle -c blue -x 253.96024 -y 217.82994 -z 4
n -t 20.89583 -s 11 -S UP -v circle -c blue -x 234.5517 -y 232.60762 -z 4
n -t 21.009045 -s 11 -S UP -v circle -c blue -x 234.13945 -y 230.43054 -z 4
n -t 21.023306 -s 28 -S UP -v circle -c blue -x 321.34158 -y 454.2702 -z 4
n -t 21.050413 -s 11 -S UP -v circle -c blue -x 234.303 -y 230.31644 -z 4
n -t 21.099518 -s 23 -S UP -v circle -c blue -x 204.2357 -y 205.35521 -z 4
n -t 21.402534 -s 21 -S UP -v circle -c blue -x 242.74982 -y 222.01295 -z 4
n -t 21.66343 -s 28 -S UP -v circle -c blue -x 323.05243 -y 456.31232 -z 4
n -t 21.815653 -s 18 -S UP -v circle -c blue -x 466.63983 -y 108.50086 -z 4
n -t 21.908096 -s 15 -S UP -v circle -c blue -x 368.0888 -y 172.31021 -z 4
n -t 21.943188 -s 9 -S UP -v circle -c blue -x 461.71414 -y 135.3165 -z 4
n -t 22.029652 -s 13 -S UP -v circle -c blue -x 428.02417 -y 160.86987 -z 4
n -t 22.053862 -s 9 -S UP -v circle -c blue -x 461.99338 -y 134.30728 -z 4
n -t 22.12586 -s 26 -S UP -v circle -c blue -x 446.45886 -y 164.0487 -z 4
n -t 22.184134 -s 6 -S UP -v circle -c red -x 350.02164 -y 6.014786 -z 4
n -t 22.97021 -s 15 -S UP -v circle -c blue -x 382.29068 -y 165.93893 -z 4
n -t 23.395025 -s 8 -S UP -v circle -c red -x 492.745 -y 157.41559 -z 4
n -t 23.606901 -s 7 -S UP -v circle -c red -x 253.45456 -y 332.59283 -z 4
n -t 23.680002 -s 13 -S UP -v circle -c blue -x 459.1003 -y 158.96953 -z 4
n -t 23.708025 -s 7 -S UP -v circle -c red -x 253.67175 -y 332.6812 -z 4
n -t 23.764246 -s 4 -S UP -v circle -c red -x 498.07004 -y 50.87747 -z 4
n -t 23.839012 -s 5 -S UP -v circle -c red -x 353.8876 -y 184.21133 -z 4
n -t 23.921951 -s 8 -S UP -v circle -c red -x 494.46133 -y 149.54982 -z 4
n -t 23.926235 -s 6 -S UP -v circle -c red -x 322.1969 -y 15.6557255 -z 4
n -t 24.052624 -s 21 -S UP -v circle -c blue -x 248.76141 -y 210.64641 -z 4
n -t 24.086977 -s 6 -S UP -v circle -c red -x 322.8988 -y 13.161408 -z 4
n -t 24.239384 -s 24 -S UP -v circle -c blue -x 164.94289 -y 339.70605 -z 4
n -t 24.26795 -s 24 -S UP -v circle -c blue -x 164.93509 -y 340.1215 -z 4
n -t 24.448048 -s 14 -S UP -v circle -c blue -x 306.2007 -y 322.4692 -z 4
n -t 24.655663 -s 22 -S UP -v circle -c blue -x 453.20233 -y 22.160166 -z 4
n -t 24.698986 -s 28 -S UP -v circle -c blue -x 318.29025 -y 493.693 -z 4
n -t 24.777466 -s 7 -S UP -v circle -c red -x 264.54013 -y 341.924 -z 4
n -t 24.86837 -s 15 -S UP -v circle -c blue -x 382.26273 -y 184.7369 -z 4
n -t 24.949106 -s 17 -S UP -v circle -c blue -x 293.3819 -y 1.4027077 -z 4
n -t 25.234354 -s 5 -S UP -v circle -c red -x 333.53305 -y 178.93729 -z 4
n -t 25.808296 -s 28 -S UP -v circle -c blue -x 331.3521 -y 480.21356 -z 4
n -t 25.940607 -s 5 -S UP -v circle -c red -x 330.91638 -y 177.1177 -z 4
n -t 25.962444 -s 11 -S UP -v circle -c blue -x 242.27985 -y 262.10596 -z 4
n -t 26.186333 -s 30 -S UP -v circle -c blue -x 47.593163 -y 263.3341 -z 4
n -t 26.204805 -s 19 -S UP -v circle -c blue -x 13.463698 -y 225.8591 -z 4
n -t 26.38532 -s 4 -S UP -v circle -c red -x 494.90247 -y 64.19517 -z 4
n -t 26.692514 -s 24 -S UP -v circle -c blue -x 175.43507 -y 345.6081 -z 4
n -t 26.957283 -s 17 -S UP -v circle -c blue -x 286.19922 -y 11.948534 -z 4
n -t 27.143665 -s 9 -S UP -v circle -c blue -x 465.56155 -y 80.3807 -z 4
n -t 27.250715 -s 28 -S UP -v circle -c blue -x 347.47253 -y 462.30124 -z 4
n -t 27.38806 -s 7 -S UP -v circle -c red -x 296.8535 -y 361.95358 -z 4
n -t 27.39015 -s 11 -S UP -v circle -c blue -x 248.45824 -y 272.7163 -z 4
n -t 27.413479 -s 11 -S UP -v circle -c blue -x 248.61288 -y 272.8416 -z 4
n -t 27.419624 -s 8 -S UP -v circle -c red -x 486.773 -y 144.47308 -z 4
n -t 27.574907 -s 30 -S UP -v circle -c blue -x 40.259983 -y 269.6927 -z 4
n -t 27.699873 -s 21 -S UP -v circle -c blue -x 222.65587 -y 243.92857 -z 4
n -t 27.86095 -s 13 -S UP -v circle -c blue -x 454.8639 -y 197.55933 -z 4
n -t 27.934605 -s 27 -S UP -v circle -c blue -x 61.87464 -y 15.169773 -z 4
n -t 27.959103 -s 8 -S UP -v circle -c red -x 480.70398 -y 141.58778 -z 4
n -t 28.214338 -s 4 -S UP -v circle -c red -x 479.82947 -y 72.73455 -z 4
n -t 28.378708 -s 26 -S UP -v circle -c blue -x 451.14368 -y 163.4317 -z 4
n -t 28.597118 -s 11 -S UP -v circle -c blue -x 249.47147 -y 272.89066 -z 4
n -t 29.08153 -s 11 -S UP -v circle -c blue -x 255.5529 -y 272.33618 -z 4
n -t 29.237988 -s 30 -S UP -v circle -c blue -x 47.24284 -y 254.79823 -z 4
n -t 29.362328 -s 28 -S UP -v circle -c blue -x 348.9468 -y 446.6807 -z 4
n -t 29.453691 -s 28 -S UP -v circle -c blue -x 349.464 -y 446.93567 -z 4
n -t 29.60743 -s 26 -S UP -v circle -c blue -x 452.56403 -y 144.73119 -z 4
n -t 29.78835 -s 28 -S UP -v circle -c blue -x 348.408 -y 446.0585 -z 4
n -t 29.816353 -s 21 -S UP -v circle -c blue -x 228.01794 -y 239.44142 -z 4
n -t 29.829279 -s 5 -S UP -v circle -c red -x 325.16974 -y 198.45596 -z 4
n -t 30.02454 -s 17 -S UP -v circle -c blue -x 318.66635 -y 14.480282 -z 4
n -t 30.042528 -s 17 -S UP -v circle -c blue -x 318.6192 -y 14.126526 -z 4
n -t 30.17983 -s 26 -S UP -v circle -c blue -x 458.24973 -y 146.20993 -z 4
n -t 30.214426 -s 7 -S UP -v circle -c red -x 329.26584 -y 357.0523 -z 4
n -t 30.241804 -s 11 -S UP -v circle -c blue -x 258.4855 -y 268.2929 -z 4
n -t 30.280352 -s 8 -S UP -v circle -c red -x 487.45074 -y 147.13739 -z 4
n -t 30.31193 -s 21 -S UP -v circle -c blue -x 225.26115 -y 234.66208 -z 4
n -t 30.320871 -s 8 -S UP -v circle -c red -x 487.7679 -y 147.47557 -z 4
n -t 30.343487 -s 9 -S UP -v circle -c blue -x 444.5075 -y 89.59799 -z 4
n -t 30.375334 -s 4 -S UP -v circle -c red -x 466.57172 -y 56.185696 -z 4
n -t 30.550623 -s 27 -S UP -v circle -c blue -x 13.91529 -y 27.388014 -z 4
n -t 30.617126 -s 11 -S UP -v circle -c blue -x 264.13925 -y 270.98505 -z 4
n -t 30.653772 -s 21 -S UP -v circle -c blue -x 229.08423 -y 234.74144 -z 4
n -t 30.729254 -s 3 -S UP -v circle -c red -x 392.04688 -y 452.82724 -z 4
n -t 30.991419 -s 7 -S UP -v circle -c red -x 326.74265 -y 357.7957 -z 4
n -t 31.015638 -s 11 -S UP -v circle -c blue -x 266.055 -y 266.38687 -z 4
n -t 31.036348 -s 11 -S UP -v circle -c blue -x 266.27026 -y 266.42374 -z 4
n -t 31.140373 -s 14 -S UP -v circle -c blue -x 291.99924 -y 338.67917 -z 4
n -t 31.259287 -s 27 -S UP -v circle -c blue -x 3.0072849 -y 30.868198 -z 4
n -t 31.324326 -s 16 -S UP -v circle -c blue -x 184.85616 -y 308.90427 -z 4
n -t 31.344782 -s 3 -S UP -v circle -c red -x 394.5041 -y 454.0046 -z 4
n -t 31.382992 -s 18 -S UP -v circle -c blue -x 479.86896 -y 107.78893 -z 4
n -t 31.412766 -s 4 -S UP -v circle -c red -x 467.8563 -y 50.325474 -z 4
n -t 31.500803 -s 8 -S UP -v circle -c red -x 483.74524 -y 148.45425 -z 4
n -t 31.54412 -s 9 -S UP -v circle -c blue -x 456.01135 -y 82.19739 -z 4
n -t 32.19793 -s 7 -S UP -v circle -c red -x 346.96304 -y 355.96136 -z 4
n -t 32.226654 -s 21 -S UP -v circle -c blue -x 210.86555 -y 249.3096 -z 4
n -t 32.276794 -s 5 -S UP -v circle -c red -x 314.578 -y 197.55554 -z 4
n -t 32.28836 -s 24 -S UP -v circle -c blue -x 211.85336 -y 378.44794 -z 4
n -t 32.401596 -s 5 -S UP -v circle -c red -x 313.2682 -y 199.54324 -z 4
n -t 32.627274 -s 5 -S UP -v circle -c red -x 314.4007 -y 199.13515 -z 4
n -t 32.70601 -s 21 -S UP -v circle -c blue -x 216.25986 -y 252.83202 -z 4
n -t 32.909508 -s 16 -S UP -v circle -c blue -x 186.52444 -y 331.03607 -z 4
n -t 33.011898 -s 27 -S UP -v circle -c blue -x 18.754578 -y 0.17612 -z 4
n -t 33.01375 -s 13 -S UP -v circle -c blue -x 450.75928 -y 172.80507 -z 4
n -t 33.14279 -s 9 -S UP -v circle -c blue -x 457.98618 -y 90.83228 -z 4
n -t 33.216488 -s 21 -S UP -v circle -c blue -x 221.90169 -y 257.56494 -z 4
n -t 33.304405 -s 27 -S UP -v circle -c blue -x 16.38222 -y 1.0962687 -z 4
n -t 33.30714 -s 5 -S UP -v circle -c red -x 307.1476 -y 203.47992 -z 4
n -t 33.346977 -s 18 -S UP -v circle -c blue -x 474.32626 -y 133.18169 -z 4
n -t 33.37976 -s 9 -S UP -v circle -c blue -x 457.97906 -y 92.25366 -z 4
n -t 33.438534 -s 27 -S UP -v circle -c blue -x 14.833774 -y 0.25122038 -z 4
n -t 33.565502 -s 28 -S UP -v circle -c blue -x 349.04044 -y 437.66562 -z 4
n -t 33.677113 -s 28 -S UP -v circle -c blue -x 350.20154 -y 436.54404 -z 4
n -t 33.733986 -s 27 -S UP -v circle -c blue -x 12.331835 -y 1.2711905 -z 4
n -t 33.79613 -s 7 -S UP -v circle -c red -x 351.9219 -y 360.74615 -z 4
n -t 33.827972 -s 14 -S UP -v circle -c blue -x 310.6692 -y 319.78253 -z 4
n -t 33.877216 -s 9 -S UP -v circle -c blue -x 461.6508 -y 83.84986 -z 4
n -t 34.32736 -s 16 -S UP -v circle -c blue -x 193.3138 -y 315.77487 -z 4
n -t 34.44869 -s 4 -S UP -v circle -c red -x 463.23462 -y 68.7603 -z 4
n -t 34.573147 -s 30 -S UP -v circle -c blue -x 47.701668 -y 250.4094 -z 4
n -t 34.742172 -s 13 -S UP -v circle -c blue -x 453.86514 -y 170.1211 -z 4
n -t 34.87218 -s 22 -S UP -v circle -c blue -x 459.25473 -y 17.713926 -z 4
n -t 34.96828 -s 7 -S UP -v circle -c red -x 351.04532 -y 344.8047 -z 4
n -t 35.02684 -s 12 -S UP -v circle -c blue -x 253.55597 -y 57.478012 -z 4
n -t 35.17513 -s 13 -S UP -v circle -c blue -x 459.94208 -y 174.08792 -z 4
n -t 35.337704 -s 14 -S UP -v circle -c blue -x 316.53104 -y 327.69485 -z 4
n -t 35.42189 -s 7 -S UP -v circle -c red -x 349.52798 -y 341.83643 -z 4
n -t 35.51491 -s 28 -S UP -v circle -c blue -x 348.63824 -y 419.0926 -z 4
n -t 35.773506 -s 18 -S UP -v circle -c blue -x 491.4572 -y 146.73628 -z 4
n -t 35.815464 -s 14 -S UP -v circle -c blue -x 318.49332 -y 332.33777 -z 4
n -t 36.025497 -s 28 -S UP -v circle -c blue -x 351.50925 -y 422.62848 -z 4
n -t 36.241184 -s 12 -S UP -v circle -c blue -x 255.86086 -y 47.727306 -z 4
n -t 36.256714 -s 23 -S UP -v circle -c blue -x 208.99675 -y 193.74367 -z 4
n -t 36.295742 -s 11 -S UP -v circle -c blue -x 247.84555 -y 324.88205 -z 4
n -t 36.424236 -s 14 -S UP -v circle -c blue -x 319.11118 -y 324.4999 -z 4
n -t 36.436935 -s 8 -S UP -v circle -c red -x 495.44583 -y 179.82678 -z 4
n -t 36.52328 -s 11 -S UP -v circle -c blue -x 249.86354 -y 322.7809 -z 4
n -t 36.53235 -s 5 -S UP -v circle -c red -x 307.64166 -y 192.95247 -z 4
n -t 36.79145 -s 28 -S UP -v circle -c blue -x 339.7285 -y 421.95593 -z 4
n -t 36.908573 -s 26 -S UP -v circle -c blue -x 453.4325 -y 116.20864 -z 4
n -t 37.192677 -s 8 -S UP -v circle -c red -x 492.7326 -y 192.67508 -z 4
n -t 37.21277 -s 5 -S UP -v circle -c red -x 314.78793 -y 196.14027 -z 4
n -t 37.42091 -s 18 -S UP -v circle -c blue -x 493.17856 -y 149.43567 -z 4
n -t 37.905987 -s 18 -S UP -v circle -c blue -x 499.67813 -y 152.06775 -z 4
n -t 37.934437 -s 9 -S UP -v circle -c blue -x 477.51028 -y 102.233536 -z 4
n -t 37.959694 -s 16 -S UP -v circle -c blue -x 208.4867 -y 316.77637 -z 4
n -t 38.104507 -s 16 -S UP -v circle -c blue -x 207.88193 -y 319.18808 -z 4
n -t 38.127247 -s 8 -S UP -v circle -c red -x 483.0008 -y 190.34894 -z 4
n -t 38.435505 -s 24 -S UP -v circle -c blue -x 221.64667 -y 391.20462 -z 4
n -t 38.98074 -s 28 -S UP -v circle -c blue -x 324.45416 -y 457.7261 -z 4
n -t 39.09648 -s 6 -S UP -v circle -c red -x 322.88913 -y 13.882131 -z 4
n -t 39.104187 -s 6 -S UP -v circle -c red -x 322.9543 -y 13.874541 -z 4
n -t 39.222076 -s 21 -S UP -v circle -c blue -x 211.41237 -y 234.09935 -z 4
n -t 39.411022 -s 12 -S UP -v circle -c blue -x 255.75363 -y 59.767162 -z 4
n -t 39.433105 -s 24 -S UP -v circle -c blue -x 219.07693 -y 396.01068 -z 4
n -t 39.488564 -s 18 -S UP -v circle -c blue -x 491.19955 -y 178.65172 -z 4
n -t 39.66123 -s 6 -S UP -v circle -c red -x 311.9172 -y 15.060521 -z 4
n -t 39.761166 -s 16 -S UP -v circle -c blue -x 214.06935 -y 310.63324 -z 4
n -t 39.835518 -s 21 -S UP -v circle -c blue -x 217.02791 -y 228.74626 -z 4
n -t 40.02803 -s 16 -S UP -v circle -c blue -x 210.96468 -y 309.98688 -z 4
n -t 40.126297 -s 23 -S UP -v circle -c blue -x 197.47383 -y 193.00299 -z 4
n -t 40.149513 -s 21 -S UP -v circle -c blue -x 219.9907 -y 226.35385 -z 4
n -t 40.258606 -s 18 -S UP -v circle -c blue -x 489.07993 -y 176.63432 -z 4
n -t 40.367 -s 24 -S UP -v circle -c blue -x 226.0866 -y 389.34842 -z 4
n -t 40.507427 -s 18 -S UP -v circle -c blue -x 489.81116 -y 172.96336 -z 4
n -t 40.998497 -s 12 -S UP -v circle -c blue -x 261.79367 -y 64.834526 -z 4
n -t 41.05067 -s 28 -S UP -v circle -c blue -x 357.47562 -y 448.0696 -z 4
n -t 41.06893 -s 4 -S UP -v circle -c red -x 439.94803 -y 73.85638 -z 4
n -t 41.247097 -s 12 -S UP -v circle -c blue -x 263.58612 -y 63.24705 -z 4
n -t 41.283722 -s 4 -S UP -v circle -c red -x 439.54984 -y 73.10967 -z 4
n -t 41.615826 -s 16 -S UP -v circle -c blue -x 220.69548 -y 315.78012 -z 4
n -t 41.64476 -s 26 -S UP -v circle -c blue -x 478.69882 -y 83.14342 -z 4
n -t 41.703087 -s 28 -S UP -v circle -c blue -x 369.50092 -y 445.47382 -z 4
n -t 41.77273 -s 28 -S UP -v circle -c blue -x 370.72897 -y 446.1063 -z 4
n -t 41.879135 -s 23 -S UP -v circle -c blue -x 208.13742 -y 186.71362 -z 4
n -t 41.887268 -s 26 -S UP -v circle -c blue -x 483.06882 -y 82.640915 -z 4
n -t 42.07113 -s 12 -S UP -v circle -c blue -x 271.99158 -y 56.208664 -z 4
n -t 42.19813 -s 12 -S UP -v circle -c blue -x 270.36343 -y 56.268215 -z 4
n -t 42.410027 -s 8 -S UP -v circle -c red -x 482.57825 -y 181.8561 -z 4
n -t 43.32666 -s 23 -S UP -v circle -c blue -x 216.91061 -y 172.33508 -z 4
n -t 44.17953 -s 28 -S UP -v circle -c blue -x 394.74176 -y 450.11743 -z 4