# Trace file generated by Jist/Swans Version 1.0.6. at Tue Apr 02 17:47:11 BRT 2013
V -t * -v 1.0a5 -a 0
W -t * -x 410 -y 410
A -t * -n 1 -p 0 -o 0xffffffff -c 31 -a 1
A -t * -h 1 -m 2147483647 -s 0
n -t 0.0 -s 1 -S UP -v circle -c red -x 337.60687 -y 385.30222 -z 4
n -t 0.0 -s 2 -S UP -v circle -c red -x 60.081245 -y 261.5038 -z 4
n -t 0.0 -s 3 -S UP -v circle -c red -x 497.26474 -y 497.20447 -z 4
n -t 0.0 -s 4 -S UP -v circle -c red -x 410.4528 -y 370.4682 -z 4
n -t 0.0 -s 5 -S UP -v circle -c red -x 61.664463 -y 185.26486 -z 4
n -t 0.0 -s 6 -S UP -v circle -c red -x 143.11906 -y 370.1957 -z 4
n -t 0.0 -s 7 -S UP -v circle -c red -x 468.04224 -y 179.7823 -z 4
n -t 0.0 -s 8 -S UP -v circle -c red -x 116.78552 -y 103.22654 -z 4
n -t 0.0 -s 9 -S UP -v circle -c blue -x 73.11294 -y 10.923415 -z 4
n -t 0.0 -s 10 -S UP -v circle -c blue -x 412.16226 -y 111.58347 -z 4
n -t 0.0 -s 1 -S UP -v circle -c red -x 337.60687 -y 385.30222 -z 4
n -t 0.0 -s 3 -S UP -v circle -c red -x 497.26474 -y 497.20447 -z 4
n -t 0.0 -s 7 -S UP -v circle -c red -x 468.04224 -y 179.7823 -z 4
n -t 0.0 -s 8 -S UP -v circle -c red -x 116.78552 -y 103.22654 -z 4
n -t 0.0 -s 4 -S UP -v circle -c red -x 410.4528 -y 370.4682 -z 4
n -t 0.0 -s 9 -S UP -v circle -c blue -x 73.11294 -y 10.923415 -z 4
n -t 0.0 -s 10 -S UP -v circle -c blue -x 412.16226 -y 111.58347 -z 4
n -t 0.0 -s 2 -S UP -v circle -c red -x 60.081245 -y 261.5038 -z 4
n -t 0.0 -s 5 -S UP -v circle -c red -x 61.664463 -y 185.26486 -z 4
n -t 0.0 -s 6 -S UP -v circle -c red -x 143.11906 -y 370.1957 -z 4
n -t 9.413297 -s 4 -S UP -v circle -c red -x 395.4968 -y 469.96045 -z 4
n -t 16.940886 -s 1 -S UP -v circle -c red -x 21.837524 -y 296.12717 -z 4
n -t 23.594631 -s 8 -S UP -v circle -c red -x 35.94429 -y 397.3445 -z 4
n -t 29.52171 -s 2 -S UP -v circle -c red -x 185.20369 -y 491.29352 -z 4
n -t 39.03168 -s 5 -S UP -v circle -c red -x 423.64813 -y 167.42876 -z 4
n -t 41.25521 -s 9 -S UP -v circle -c blue -x 76.01278 -y 268.52728 -z 4
n -t 42.224735 -s 4 -S UP -v circle -c red -x 130.07639 -y 86.686584 -z 4
n -t 63.299793 -s 2 -S UP -v circle -c red -x 198.54738 -y 114.82831 -z 4
n -t 65.6473 -s 9 -S UP -v circle -c blue -x 188.89415 -y 476.88016 -z 4
n -t 67.20942 -s 7 -S UP -v circle -c red -x 285.0812 -y 339.59293 -z 4
n -t 70.707886 -s 5 -S UP -v circle -c red -x 484.95416 -y 459.23785 -z 4
n -t 71.98501 -s 6 -S UP -v circle -c red -x 3.9927216 -y 50.41577 -z 4
n -t 72.92211 -s 4 -S UP -v circle -c red -x 109.531715 -y 494.6991 -z 4
n -t 98.23812 -s 2 -S UP -v circle -c red -x 391.27042 -y 181.2345 -z 4
n -t 109.084435 -s 10 -S UP -v circle -c blue -x 135.73386 -y 389.1827 -z 4
n -t 116.752716 -s 2 -S UP -v circle -c red -x 356.2241 -y 274.514 -z 4
n -t 116.98366 -s 3 -S UP -v circle -c red -x 365.62515 -y 185.4549 -z 4
n -t 122.275826 -s 5 -S UP -v circle -c red -x 150.12384 -y 326.26602 -z 4
n -t 125.416306 -s 5 -S UP -v circle -c red -x 139.3257 -y 273.74112 -z 4
n -t 128.06474 -s 2 -S UP -v circle -c red -x 214.95647 -y 205.73976 -z 4
n -t 131.31047 -s 5 -S UP -v circle -c red -x 209.96227 -y 244.42227 -z 4
n -t 137.85556 -s 3 -S UP -v circle -c red -x 3.9987488 -y 36.394775 -z 4
n -t 143.07841 -s 2 -S UP -v circle -c red -x 36.157974 -y 424.4042 -z 4
n -t 144.78639 -s 5 -S UP -v circle -c red -x 153.68419 -y 173.16583 -z 4
n -t 154.24426 -s 6 -S UP -v circle -c red -x 209.11702 -y 299.4342 -z 4
n -t 159.26588 -s 3 -S UP -v circle -c red -x 203.07729 -y 308.8082 -z 4
n -t 160.64049 -s 2 -S UP -v circle -c red -x 137.66139 -y 97.80533 -z 4
n -t 168.17665 -s 10 -S UP -v circle -c blue -x 453.6136 -y 41.08075 -z 4
n -t 176.9426 -s 6 -S UP -v circle -c red -x 353.1756 -y 58.489914 -z 4
n -t 182.11081 -s 6 -S UP -v circle -c red -x 450.97855 -y 27.261463 -z 4
n -t 182.42229 -s 3 -S UP -v circle -c red -x 226.15253 -y 91.93822 -z 4
n -t 182.962 -s 10 -S UP -v circle -c blue -x 334.7712 -y 92.6192 -z 4
n -t 185.17995 -s 7 -S UP -v circle -c red -x 8.969971 -y 237.11377 -z 4
n -t 185.75047 -s 2 -S UP -v circle -c red -x 443.22894 -y 163.62344 -z 4
n -t 186.19568 -s 1 -S UP -v circle -c red -x 141.91727 -y 490.36942 -z 4
n -t 207.71123 -s 2 -S UP -v circle -c red -x 188.15086 -y 98.674904 -z 4
n -t 209.52223 -s 3 -S UP -v circle -c red -x 183.26276 -y 478.06207 -z 4
n -t 226.36557 -s 2 -S UP -v circle -c red -x 276.43405 -y 23.199951 -z 4
n -t 229.12814 -s 7 -S UP -v circle -c red -x 357.4608 -y 464.97678 -z 4
n -t 236.09521 -s 6 -S UP -v circle -c red -x 298.99484 -y 25.032166 -z 4
n -t 243.24016 -s 9 -S UP -v circle -c blue -x 259.7805 -y 238.75653 -z 4
n -t 252.08875 -s 9 -S UP -v circle -c blue -x 167.14977 -y 193.8931 -z 4
n -t 254.51627 -s 5 -S UP -v circle -c red -x 259.3225 -y 16.56018 -z 4
n -t 258.20312 -s 7 -S UP -v circle -c red -x 26.845642 -y 28.185394 -z 4
n -t 258.31274 -s 10 -S UP -v circle -c blue -x 482.29428 -y 351.95712 -z 4
n -t 259.71823 -s 3 -S UP -v circle -c red -x 167.70267 -y 331.98477 -z 4
n -t 261.50192 -s 6 -S UP -v circle -c red -x 315.8693 -y 387.81906 -z 4
n -t 271.6726 -s 3 -S UP -v circle -c red -x 190.63249 -y 493.70874 -z 4
n -t 272.7091 -s 10 -S UP -v circle -c blue -x 357.1391 -y 334.31772 -z 4
n -t 277.10492 -s 10 -S UP -v circle -c blue -x 397.80023 -y 283.74902 -z 4
n -t 281.8085 -s 5 -S UP -v circle -c red -x 456.5064 -y 227.75995 -z 4
n -t 288.88443 -s 10 -S UP -v circle -c blue -x 241.21773 -y 294.08646 -z 4
n -t 293.7275 -s 9 -S UP -v circle -c blue -x 490.29047 -y 208.84868 -z 4
n -t 295.6044 -s 6 -S UP -v circle -c red -x 171.3231 -y 144.31825 -z 4
n -t 303.2848 -s 3 -S UP -v circle -c red -x 339.23373 -y 240.68214 -z 4
n -t 307.4633 -s 4 -S UP -v circle -c red -x 490.70682 -y 406.52533 -z 4
n -t 317.30533 -s 7 -S UP -v circle -c red -x 483.40866 -y 88.68283 -z 4
n -t 323.474 -s 3 -S UP -v circle -c red -x 455.27216 -y 47.82869 -z 4
n -t 325.445 -s 6 -S UP -v circle -c red -x 299.96194 -y 415.78864 -z 4
n -t 335.40585 -s 5 -S UP -v circle -c red -x 137.896 -y 19.502655 -z 4
n -t 339.10373 -s 9 -S UP -v circle -c blue -x 163.90387 -y 6.90419 -z 4
n -t 344.049 -s 5 -S UP -v circle -c red -x 128.89967 -y 89.45748 -z 4
n -t 346.30957 -s 2 -S UP -v circle -c red -x 32.06157 -y 228.2681 -z 4
n -t 346.48676 -s 10 -S UP -v circle -c blue -x 394.10873 -y 227.06564 -z 4
n -t 346.61218 -s 6 -S UP -v circle -c red -x 319.82516 -y 201.44984 -z 4
n -t 349.09753 -s 3 -S UP -v circle -c red -x 27.42566 -y 61.42153 -z 4
n -t 349.59177 -s 7 -S UP -v circle -c red -x 139.73477 -y 8.7801895 -z 4
n -t 352.19214 -s 9 -S UP -v circle -c blue -x 75.57347 -y 170.17879 -z 4
n -t 354.50455 -s 5 -S UP -v circle -c red -x 90.883965 -y 254.83298 -z 4
n -t 364.58 -s 10 -S UP -v circle -c blue -x 350.26968 -y 7.624069 -z 4
n -t 376.0232 -s 5 -S UP -v circle -c red -x 146.11832 -y 169.62622 -z 4
n -t 379.11697 -s 9 -S UP -v circle -c blue -x 464.99915 -y 226.71805 -z 4
n -t 380.65347 -s 6 -S UP -v circle -c red -x 95.667465 -y 483.75708 -z 4
n -t 384.04175 -s 2 -S UP -v circle -c red -x 229.49446 -y 341.09567 -z 4
n -t 390.52747 -s 5 -S UP -v circle -c red -x 309.74823 -y 323.1752 -z 4
n -t 398.16696 -s 10 -S UP -v circle -c blue -x 423.47867 -y 122.166115 -z 4
n -t 399.80746 -s 3 -S UP -v circle -c red -x 150.07608 -y 471.5563 -z 4
n -t 408.52792 -s 3 -S UP -v circle -c red -x 124.63959 -y 399.20004 -z 4
n -t 414.11963 -s 1 -S UP -v circle -c red -x 497.4002 -y 222.88623 -z 4
n -t 414.56723 -s 10 -S UP -v circle -c blue -x 435.9264 -y 410.53467 -z 4
n -t 421.2733 -s 5 -S UP -v circle -c red -x 130.91338 -y 120.596344 -z 4
n -t 423.9619 -s 9 -S UP -v circle -c blue -x 451.0797 -y 40.484573 -z 4
n -t 429.49847 -s 10 -S UP -v circle -c blue -x 489.22592 -y 135.73895 -z 4
n -t 433.47366 -s 4 -S UP -v circle -c red -x 62.024445 -y 189.2598 -z 4
n -t 435.4132 -s 5 -S UP -v circle -c red -x 12.607483 -y 273.72455 -z 4
n -t 442.48184 -s 3 -S UP -v circle -c red -x 369.66757 -y 101.20706 -z 4
n -t 451.9582 -s 1 -S UP -v circle -c red -x 129.26013 -y 142.06187 -z 4
n -t 458.33438 -s 4 -S UP -v circle -c red -x 342.1787 -y 7.928177 -z 4
n -t 458.99234 -s 10 -S UP -v circle -c blue -x 140.85165 -y 146.16492 -z 4
n -t 461.31653 -s 5 -S UP -v circle -c red -x 344.28 -y 26.458359 -z 4
n -t 461.9516 -s 9 -S UP -v circle -c blue -x 38.612396 -y 389.68036 -z 4
n -t 468.82275 -s 4 -S UP -v circle -c red -x 469.07507 -y 83.00529 -z 4
n -t 477.7011 -s 10 -S UP -v circle -c blue -x 82.68965 -y 407.63705 -z 4
n -t 486.7595 -s 1 -S UP -v circle -c red -x 411.80176 -y 378.46088 -z 4
n -t 491.84537 -s 5 -S UP -v circle -c red -x 57.39032 -y 253.45969 -z 4
n -t 497.9449 -s 9 -S UP -v circle -c blue -x 118.41243 -y 36.95587 -z 4
n -t 504.89893 -s 1 -S UP -v circle -c red -x 392.10327 -y 115.10599 -z 4
n -t 515.10724 -s 1 -S UP -v circle -c red -x 427.92245 -y 302.84525 -z 4
n -t 518.70795 -s 2 -S UP -v circle -c red -x 308.5276 -y 64.01578 -z 4
n -t 534.1053 -s 9 -S UP -v circle -c blue -x 435.84326 -y 245.41069 -z 4
n -t 543.4434 -s 2 -S UP -v circle -c red -x 27.191711 -y 374.8128 -z 4
n -t 549.1554 -s 1 -S UP -v circle -c red -x 247.4241 -y 347.59357 -z 4
n -t 550.9528 -s 2 -S UP -v circle -c red -x 84.978195 -y 470.85815 -z 4
n -t 554.56616 -s 4 -S UP -v circle -c red -x 173.43814 -y 431.94287 -z 4
n -t 565.01685 -s 2 -S UP -v circle -c red -x 171.6019 -y 493.66043 -z 4
n -t 570.02075 -s 9 -S UP -v circle -c blue -x 304.38705 -y 176.03093 -z 4
n -t 580.8457 -s 2 -S UP -v circle -c red -x 282.7489 -y 405.03247 -z 4
n -t 588.1641 -s 9 -S UP -v circle -c blue -x 15.608673 -y 283.67776 -z 4
n -t 588.6383 -s 1 -S UP -v circle -c red -x 139.69086 -y 177.40518 -z 4
n -t 597.5999 -s 1 -S UP -v circle -c red -x 225.86852 -y 267.8339 -z 4
n -t 605.655 -s 4 -S UP -v circle -c red -x 447.85406 -y 25.59201 -z 4
n -t 606.8064 -s 10 -S UP -v circle -c blue -x 473.04352 -y 499.96265 -z 4
n -t 609.6058 -s 9 -S UP -v circle -c blue -x 285.18658 -y 274.49786 -z 4
n -t 610.8625 -s 1 -S UP -v circle -c red -x 413.4931 -y 362.70758 -z 4
n -t 621.85754 -s 1 -S UP -v circle -c red -x 490.63 -y 296.99713 -z 4
n -t 635.127 -s 5 -S UP -v circle -c red -x 346.43533 -y 179.24329 -z 4
n -t 638.34845 -s 2 -S UP -v circle -c red -x 5.3483276 -y 435.53436 -z 4
n -t 644.6365 -s 9 -S UP -v circle -c blue -x 81.21008 -y 174.02127 -z 4
n -t 645.6808 -s 5 -S UP -v circle -c red -x 222.88373 -y 293.20038 -z 4
n -t 650.60626 -s 6 -S UP -v circle -c red -x 492.8343 -y 354.1973 -z 4
n -t 654.9853 -s 4 -S UP -v circle -c red -x 394.32312 -y 310.10437 -z 4
n -t 674.96185 -s 9 -S UP -v circle -c blue -x 273.3558 -y 132.57086 -z 4
n -t 679.4284 -s 6 -S UP -v circle -c red -x 224.54004 -y 371.15292 -z 4
n -t 687.78955 -s 6 -S UP -v circle -c red -x 222.8912 -y 261.8733 -z 4
n -t 697.99146 -s 5 -S UP -v circle -c red -x 273.5403 -y 130.52747 -z 4
n -t 702.8878 -s 4 -S UP -v circle -c red -x 458.51602 -y 109.87509 -z 4
n -t 718.39294 -s 1 -S UP -v circle -c red -x 13.452789 -y 179.68219 -z 4
n -t 725.45605 -s 4 -S UP -v circle -c red -x 247.89453 -y 87.55279 -z 4
n -t 731.88776 -s 10 -S UP -v circle -c blue -x 469.48315 -y 66.28589 -z 4
n -t 739.4098 -s 4 -S UP -v circle -c red -x 441.67102 -y 188.53638 -z 4
n -t 761.0732 -s 10 -S UP -v circle -c blue -x 459.2209 -y 208.02193 -z 4
n -t 771.3332 -s 9 -S UP -v circle -c blue -x 291.97345 -y 394.06125 -z 4
n -t 777.3581 -s 9 -S UP -v circle -c blue -x 179.15129 -y 384.72205 -z 4
n -t 781.57526 -s 10 -S UP -v circle -c blue -x 286.8179 -y 427.95355 -z 4
n -t 786.3878 -s 9 -S UP -v circle -c blue -x 63.436905 -y 382.69785 -z 4
n -t 794.978 -s 10 -S UP -v circle -c blue -x 494.1462 -y 348.8961 -z 4
n -t 815.35693 -s 9 -S UP -v circle -c blue -x 426.83337 -y 178.45496 -z 4
n -t 817.9783 -s 7 -S UP -v circle -c red -x 299.54337 -y 364.15826 -z 4
n -t 823.9104 -s 9 -S UP -v circle -c blue -x 455.4523 -y 156.6811 -z 4
n -t 829.85144 -s 7 -S UP -v circle -c red -x 494.68808 -y 379.6665 -z 4
n -t 838.2456 -s 1 -S UP -v circle -c red -x 297.0011 -y 86.21583 -z 4
n -t 846.9248 -s 10 -S UP -v circle -c blue -x 272.4386 -y 79.55667 -z 4
n -t 856.17834 -s 1 -S UP -v circle -c red -x 32.684387 -y 117.00803 -z 4
n -t 875.32983 -s 10 -S UP -v circle -c blue -x 21.97934 -y 164.34595 -z 4
n -t 877.1321 -s 7 -S UP -v circle -c red -x 9.718658 -y 110.50122 -z 4
