# Trace file generated by Jist/Swans Version 1.0.6. at Wed May 29 00:22:48 BRT 2013
V -t * -v 1.0a5 -a 0
W -t * -x 410 -y 410
A -t * -n 1 -p 0 -o 0xffffffff -c 31 -a 1
A -t * -h 1 -m 2147483647 -s 0
n -t 0.0 -s 1 -S UP -v circle -c red -x 398.55017 -y 192.93279 -z 4
n -t 0.0 -s 2 -S UP -v circle -c red -x 21.205307 -y 120.24179 -z 4
n -t 0.0 -s 3 -S UP -v circle -c red -x 286.54404 -y 75.45784 -z 4
n -t 0.0 -s 4 -S UP -v circle -c red -x 87.39224 -y 367.50778 -z 4
n -t 0.0 -s 5 -S UP -v circle -c red -x 438.57196 -y 194.05827 -z 4
n -t 0.0 -s 6 -S UP -v circle -c red -x 399.95673 -y 38.848312 -z 4
n -t 0.0 -s 7 -S UP -v circle -c red -x 375.36346 -y 284.55234 -z 4
n -t 0.0 -s 8 -S UP -v circle -c red -x 47.89311 -y 258.87024 -z 4
n -t 0.0 -s 9 -S UP -v circle -c blue -x 437.88153 -y 382.66806 -z 4
n -t 0.0 -s 10 -S UP -v circle -c blue -x 272.61987 -y 191.27602 -z 4
n -t 0.0 -s 11 -S UP -v circle -c blue -x 200.04597 -y 226.62904 -z 4
n -t 0.0 -s 12 -S UP -v circle -c blue -x 0.85544586 -y 67.26986 -z 4
n -t 0.0 -s 13 -S UP -v circle -c blue -x 95.65794 -y 64.09523 -z 4
n -t 0.0 -s 14 -S UP -v circle -c blue -x 273.19125 -y 366.19022 -z 4
n -t 0.0 -s 15 -S UP -v circle -c blue -x 1.0573566 -y 57.564972 -z 4
n -t 0.0 -s 16 -S UP -v circle -c blue -x 217.36366 -y 131.78175 -z 4
n -t 0.0 -s 17 -S UP -v circle -c blue -x 37.017166 -y 127.3655 -z 4
n -t 0.0 -s 18 -S UP -v circle -c blue -x 463.76285 -y 247.8528 -z 4
n -t 0.0 -s 19 -S UP -v circle -c blue -x 453.47607 -y 232.00267 -z 4
n -t 0.0 -s 20 -S UP -v circle -c blue -x 477.375 -y 103.02103 -z 4
n -t 0.0 -s 1 -S UP -v circle -c red -x 398.55017 -y 192.93279 -z 4
n -t 0.0 -s 3 -S UP -v circle -c red -x 286.54404 -y 75.45784 -z 4
n -t 0.0 -s 7 -S UP -v circle -c red -x 375.36346 -y 284.55234 -z 4
n -t 0.0 -s 15 -S UP -v circle -c blue -x 1.0573566 -y 57.564972 -z 4
n -t 0.0 -s 16 -S UP -v circle -c blue -x 217.36366 -y 131.78175 -z 4
n -t 0.0 -s 8 -S UP -v circle -c red -x 47.89311 -y 258.87024 -z 4
n -t 0.0 -s 17 -S UP -v circle -c blue -x 37.017166 -y 127.3655 -z 4
n -t 0.0 -s 18 -S UP -v circle -c blue -x 463.76285 -y 247.8528 -z 4
n -t 0.0 -s 4 -S UP -v circle -c red -x 87.39224 -y 367.50778 -z 4
n -t 0.0 -s 9 -S UP -v circle -c blue -x 437.88153 -y 382.66806 -z 4
n -t 0.0 -s 19 -S UP -v circle -c blue -x 453.47607 -y 232.00267 -z 4
n -t 0.0 -s 20 -S UP -v circle -c blue -x 477.375 -y 103.02103 -z 4
n -t 0.0 -s 10 -S UP -v circle -c blue -x 272.61987 -y 191.27602 -z 4
n -t 0.0 -s 2 -S UP -v circle -c red -x 21.205307 -y 120.24179 -z 4
n -t 0.0 -s 5 -S UP -v circle -c red -x 438.57196 -y 194.05827 -z 4
n -t 0.0 -s 11 -S UP -v circle -c blue -x 200.04597 -y 226.62904 -z 4
n -t 0.0 -s 12 -S UP -v circle -c blue -x 0.85544586 -y 67.26986 -z 4
n -t 0.0 -s 6 -S UP -v circle -c red -x 399.95673 -y 38.848312 -z 4
n -t 0.0 -s 13 -S UP -v circle -c blue -x 95.65794 -y 64.09523 -z 4
n -t 0.0 -s 14 -S UP -v circle -c blue -x 273.19125 -y 366.19022 -z 4
n -t 1.0 -s 1 -S UP -v circle -c red -x 393.7062 -y 191.69337 -z 4
n -t 1.0 -s 17 -S UP -v circle -c blue -x 42.01584 -y 127.480675 -z 4
n -t 1.0 -s 16 -S UP -v circle -c blue -x 216.84967 -y 136.75526 -z 4
n -t 1.0 -s 15 -S UP -v circle -c blue -x 2.3397956 -y 52.732235 -z 4
n -t 1.0 -s 8 -S UP -v circle -c red -x 52.776974 -y 259.94162 -z 4
n -t 1.0 -s 7 -S UP -v circle -c red -x 377.6847 -y 288.98087 -z 4
n -t 1.0 -s 3 -S UP -v circle -c red -x 289.0157 -y 71.111465 -z 4
n -t 1.0 -s 20 -S UP -v circle -c blue -x 480.59058 -y 99.192184 -z 4
n -t 1.0 -s 9 -S UP -v circle -c blue -x 439.0555 -y 387.5283 -z 4
n -t 1.0 -s 18 -S UP -v circle -c blue -x 460.46228 -y 251.60864 -z 4
n -t 1.0 -s 4 -S UP -v circle -c red -x 91.508705 -y 370.3459 -z 4
n -t 1.0 -s 19 -S UP -v circle -c blue -x 451.4626 -y 227.42601 -z 4
n -t 1.0 -s 10 -S UP -v circle -c blue -x 267.62537 -y 191.51053 -z 4
n -t 1.0 -s 2 -S UP -v circle -c red -x 25.293737 -y 123.12011 -z 4
n -t 1.0 -s 5 -S UP -v circle -c red -x 440.46826 -y 198.68472 -z 4
n -t 1.0 -s 11 -S UP -v circle -c blue -x 197.34297 -y 230.83543 -z 4
n -t 1.0 -s 6 -S UP -v circle -c red -x 397.08377 -y 42.940506 -z 4
n -t 1.0 -s 13 -S UP -v circle -c blue -x 92.737976 -y 60.036438 -z 4
n -t 1.0 -s 14 -S UP -v circle -c blue -x 277.04294 -y 363.002 -z 4
n -t 2.0 -s 13 -S UP -v circle -c blue -x 89.81801 -y 55.977646 -z 4
n -t 2.0 -s 14 -S UP -v circle -c blue -x 280.89462 -y 359.8138 -z 4
n -t 2.0 -s 18 -S UP -v circle -c blue -x 457.1617 -y 255.36449 -z 4
n -t 2.0 -s 15 -S UP -v circle -c blue -x 3.6222346 -y 47.899498 -z 4
n -t 2.0 -s 16 -S UP -v circle -c blue -x 216.33568 -y 141.72878 -z 4
n -t 2.0 -s 9 -S UP -v circle -c blue -x 440.2295 -y 392.38852 -z 4
n -t 2.0 -s 3 -S UP -v circle -c red -x 291.48734 -y 66.76509 -z 4
n -t 2.0 -s 8 -S UP -v circle -c red -x 57.66084 -y 261.013 -z 4
n -t 2.0 -s 7 -S UP -v circle -c red -x 380.00592 -y 293.4094 -z 4
n -t 2.0 -s 20 -S UP -v circle -c blue -x 483.80615 -y 95.36334 -z 4
n -t 2.0 -s 6 -S UP -v circle -c red -x 394.21082 -y 47.0327 -z 4
n -t 2.0 -s 11 -S UP -v circle -c blue -x 194.63997 -y 235.04182 -z 4
n -t 2.0 -s 5 -S UP -v circle -c red -x 442.36456 -y 203.31117 -z 4
n -t 2.0 -s 2 -S UP -v circle -c red -x 29.382168 -y 125.99843 -z 4
n -t 2.0 -s 10 -S UP -v circle -c blue -x 262.63086 -y 191.74504 -z 4
n -t 2.0 -s 19 -S UP -v circle -c blue -x 449.4491 -y 222.84935 -z 4
n -t 2.0 -s 4 -S UP -v circle -c red -x 95.62517 -y 373.184 -z 4
n -t 2.0 -s 1 -S UP -v circle -c red -x 388.86224 -y 190.45396 -z 4
n -t 2.0 -s 17 -S UP -v circle -c blue -x 47.01451 -y 127.59585 -z 4
n -t 3.0 -s 1 -S UP -v circle -c red -x 384.01828 -y 189.21455 -z 4
n -t 3.0 -s 17 -S UP -v circle -c blue -x 52.013184 -y 127.71102 -z 4
n -t 3.0 -s 8 -S UP -v circle -c red -x 62.544704 -y 262.08438 -z 4
n -t 3.0 -s 14 -S UP -v circle -c blue -x 284.7463 -y 356.6256 -z 4
n -t 3.0 -s 13 -S UP -v circle -c blue -x 86.89804 -y 51.918854 -z 4
n -t 3.0 -s 3 -S UP -v circle -c red -x 293.95898 -y 62.418716 -z 4
n -t 3.0 -s 16 -S UP -v circle -c blue -x 215.82169 -y 146.70229 -z 4
n -t 3.0 -s 18 -S UP -v circle -c blue -x 453.86115 -y 259.12033 -z 4
n -t 3.0 -s 15 -S UP -v circle -c blue -x 4.9046736 -y 43.06676 -z 4
n -t 3.0 -s 9 -S UP -v circle -c blue -x 441.40347 -y 397.24875 -z 4
n -t 3.0 -s 4 -S UP -v circle -c red -x 99.74163 -y 376.0221 -z 4
n -t 3.0 -s 19 -S UP -v circle -c blue -x 447.4356 -y 218.27269 -z 4
n -t 3.0 -s 10 -S UP -v circle -c blue -x 257.63635 -y 191.97955 -z 4
n -t 3.0 -s 2 -S UP -v circle -c red -x 33.470596 -y 128.87675 -z 4
n -t 3.0 -s 5 -S UP -v circle -c red -x 444.26086 -y 207.93762 -z 4
n -t 3.0 -s 11 -S UP -v circle -c blue -x 191.93697 -y 239.24821 -z 4
n -t 3.0 -s 6 -S UP -v circle -c red -x 391.33786 -y 51.124893 -z 4
n -t 3.0 -s 20 -S UP -v circle -c blue -x 487.02173 -y 91.5345 -z 4
n -t 3.0 -s 7 -S UP -v circle -c red -x 382.32715 -y 297.83792 -z 4
n -t 4.0 -s 20 -S UP -v circle -c blue -x 490.2373 -y 87.70566 -z 4
n -t 4.0 -s 7 -S UP -v circle -c red -x 384.64838 -y 302.26645 -z 4
n -t 4.0 -s 18 -S UP -v circle -c blue -x 450.56058 -y 262.87616 -z 4
n -t 4.0 -s 17 -S UP -v circle -c blue -x 57.011856 -y 127.826195 -z 4
n -t 4.0 -s 1 -S UP -v circle -c red -x 379.17432 -y 187.97514 -z 4
n -t 4.0 -s 16 -S UP -v circle -c blue -x 215.3077 -y 151.6758 -z 4
n -t 4.0 -s 13 -S UP -v circle -c blue -x 83.97807 -y 47.86006 -z 4
n -t 4.0 -s 8 -S UP -v circle -c red -x 67.428566 -y 263.15576 -z 4
n -t 4.0 -s 14 -S UP -v circle -c blue -x 288.598 -y 353.4374 -z 4
n -t 4.0 -s 3 -S UP -v circle -c red -x 296.43063 -y 58.072342 -z 4
n -t 4.0 -s 6 -S UP -v circle -c red -x 388.4649 -y 55.217087 -z 4
n -t 4.0 -s 11 -S UP -v circle -c blue -x 189.23396 -y 243.4546 -z 4
n -t 4.0 -s 5 -S UP -v circle -c red -x 446.15717 -y 212.56407 -z 4
n -t 4.0 -s 2 -S UP -v circle -c red -x 37.559025 -y 131.75508 -z 4
n -t 4.0 -s 10 -S UP -v circle -c blue -x 252.64186 -y 192.21407 -z 4
n -t 4.0 -s 19 -S UP -v circle -c blue -x 445.42212 -y 213.69603 -z 4
n -t 4.0 -s 4 -S UP -v circle -c red -x 103.85809 -y 378.8602 -z 4
n -t 4.0 -s 9 -S UP -v circle -c blue -x 442.57745 -y 402.10898 -z 4
n -t 4.0 -s 15 -S UP -v circle -c blue -x 6.1871123 -y 38.234024 -z 4
n -t 5.0 -s 9 -S UP -v circle -c blue -x 443.75143 -y 406.9692 -z 4
n -t 5.0 -s 15 -S UP -v circle -c blue -x 7.469551 -y 33.401287 -z 4
n -t 5.0 -s 8 -S UP -v circle -c red -x 72.31243 -y 264.22714 -z 4
n -t 5.0 -s 7 -S UP -v circle -c red -x 386.9696 -y 306.69498 -z 4
n -t 5.0 -s 20 -S UP -v circle -c blue -x 493.45288 -y 83.876816 -z 4
n -t 5.0 -s 13 -S UP -v circle -c blue -x 81.058105 -y 43.80127 -z 4
n -t 5.0 -s 1 -S UP -v circle -c red -x 374.33035 -y 186.73573 -z 4
n -t 5.0 -s 18 -S UP -v circle -c blue -x 447.26 -y 266.632 -z 4
n -t 5.0 -s 17 -S UP -v circle -c blue -x 62.01053 -y 127.94137 -z 4
n -t 5.0 -s 16 -S UP -v circle -c blue -x 214.7937 -y 156.6493 -z 4
n -t 5.0 -s 4 -S UP -v circle -c red -x 107.974556 -y 381.6983 -z 4
n -t 5.0 -s 19 -S UP -v circle -c blue -x 443.40863 -y 209.11937 -z 4
n -t 5.0 -s 10 -S UP -v circle -c blue -x 247.64737 -y 192.44858 -z 4
n -t 5.0 -s 2 -S UP -v circle -c red -x 41.647453 -y 134.6334 -z 4
n -t 5.0 -s 5 -S UP -v circle -c red -x 448.05347 -y 217.19052 -z 4
n -t 5.0 -s 11 -S UP -v circle -c blue -x 186.53096 -y 247.661 -z 4
n -t 5.0 -s 6 -S UP -v circle -c red -x 385.59195 -y 59.30928 -z 4
n -t 5.0 -s 3 -S UP -v circle -c red -x 298.90228 -y 53.725967 -z 4
n -t 5.0 -s 14 -S UP -v circle -c blue -x 292.44968 -y 350.2492 -z 4
n -t 6.0 -s 3 -S UP -v circle -c red -x 301.37393 -y 49.379593 -z 4
n -t 6.0 -s 14 -S UP -v circle -c blue -x 296.30136 -y 347.061 -z 4
n -t 6.0 -s 18 -S UP -v circle -c blue -x 443.95944 -y 270.38782 -z 4
n -t 6.0 -s 15 -S UP -v circle -c blue -x 8.75199 -y 28.56855 -z 4
n -t 6.0 -s 9 -S UP -v circle -c blue -x 444.9254 -y 411.82944 -z 4
n -t 6.0 -s 1 -S UP -v circle -c red -x 369.4864 -y 185.49632 -z 4
n -t 6.0 -s 20 -S UP -v circle -c blue -x 496.66846 -y 80.04797 -z 4
n -t 6.0 -s 8 -S UP -v circle -c red -x 77.1963 -y 265.29852 -z 4
n -t 6.0 -s 7 -S UP -v circle -c red -x 389.29083 -y 311.1235 -z 4
n -t 6.0 -s 13 -S UP -v circle -c blue -x 78.13814 -y 39.742477 -z 4
n -t 6.0 -s 6 -S UP -v circle -c red -x 382.719 -y 63.401474 -z 4
n -t 6.0 -s 11 -S UP -v circle -c blue -x 183.82796 -y 251.86739 -z 4
n -t 6.0 -s 5 -S UP -v circle -c red -x 449.94977 -y 221.81697 -z 4
n -t 6.0 -s 2 -S UP -v circle -c red -x 45.73588 -y 137.51173 -z 4
n -t 6.0 -s 10 -S UP -v circle -c blue -x 242.65288 -y 192.68309 -z 4
n -t 6.0 -s 19 -S UP -v circle -c blue -x 441.39514 -y 204.54271 -z 4
n -t 6.0 -s 4 -S UP -v circle -c red -x 112.09102 -y 384.5364 -z 4
n -t 6.0 -s 16 -S UP -v circle -c blue -x 214.27971 -y 161.62282 -z 4
n -t 6.0 -s 17 -S UP -v circle -c blue -x 67.0092 -y 128.05655 -z 4
n -t 7.0 -s 16 -S UP -v circle -c blue -x 213.76572 -y 166.59633 -z 4
n -t 7.0 -s 17 -S UP -v circle -c blue -x 72.00787 -y 128.17172 -z 4
n -t 7.0 -s 8 -S UP -v circle -c red -x 82.08016 -y 266.3699 -z 4
n -t 7.0 -s 14 -S UP -v circle -c blue -x 300.15305 -y 343.8728 -z 4
n -t 7.0 -s 3 -S UP -v circle -c red -x 303.84558 -y 45.03322 -z 4
n -t 7.0 -s 20 -S UP -v circle -c blue -x 499.88403 -y 76.21913 -z 4
n -t 7.0 -s 9 -S UP -v circle -c blue -x 446.0994 -y 416.68967 -z 4
n -t 7.0 -s 18 -S UP -v circle -c blue -x 440.65887 -y 274.14365 -z 4
n -t 7.0 -s 15 -S UP -v circle -c blue -x 10.03443 -y 23.735813 -z 4
n -t 7.0 -s 1 -S UP -v circle -c red -x 364.64243 -y 184.25691 -z 4
n -t 7.0 -s 4 -S UP -v circle -c red -x 116.20748 -y 387.3745 -z 4
n -t 7.0 -s 19 -S UP -v circle -c blue -x 439.38165 -y 199.96605 -z 4
n -t 7.0 -s 10 -S UP -v circle -c blue -x 237.65839 -y 192.9176 -z 4
n -t 7.0 -s 2 -S UP -v circle -c red -x 49.82431 -y 140.39006 -z 4
n -t 7.0 -s 5 -S UP -v circle -c red -x 451.84607 -y 226.44342 -z 4
n -t 7.0 -s 11 -S UP -v circle -c blue -x 181.12495 -y 256.0738 -z 4
n -t 7.0 -s 6 -S UP -v circle -c red -x 379.84604 -y 67.49367 -z 4
n -t 7.0 -s 13 -S UP -v circle -c blue -x 75.21817 -y 35.683685 -z 4
n -t 7.0 -s 7 -S UP -v circle -c red -x 391.61206 -y 315.55203 -z 4
n -t 8.0 -s 13 -S UP -v circle -c blue -x 72.2982 -y 31.624893 -z 4
n -t 8.0 -s 7 -S UP -v circle -c red -x 393.9333 -y 319.98056 -z 4
n -t 8.0 -s 18 -S UP -v circle -c blue -x 437.3583 -y 277.89948 -z 4
n -t 8.0 -s 17 -S UP -v circle -c blue -x 77.006546 -y 128.2869 -z 4
n -t 8.0 -s 16 -S UP -v circle -c blue -x 213.25172 -y 171.56984 -z 4
n -t 8.0 -s 9 -S UP -v circle -c blue -x 447.27338 -y 421.5499 -z 4
n -t 8.0 -s 3 -S UP -v circle -c red -x 306.31723 -y 40.686844 -z 4
n -t 8.0 -s 8 -S UP -v circle -c red -x 86.96403 -y 267.44128 -z 4
n -t 8.0 -s 14 -S UP -v circle -c blue -x 304.00473 -y 340.6846 -z 4
n -t 8.0 -s 6 -S UP -v circle -c red -x 376.97308 -y 71.58586 -z 4
n -t 8.0 -s 11 -S UP -v circle -c blue -x 178.42195 -y 260.28018 -z 4
n -t 8.0 -s 5 -S UP -v circle -c red -x 453.74237 -y 231.06987 -z 4
n -t 8.0 -s 2 -S UP -v circle -c red -x 53.91274 -y 143.26839 -z 4
n -t 8.0 -s 10 -S UP -v circle -c blue -x 232.6639 -y 193.15211 -z 4
n -t 8.0 -s 19 -S UP -v circle -c blue -x 437.36816 -y 195.38939 -z 4
n -t 8.0 -s 4 -S UP -v circle -c red -x 120.323944 -y 390.21262 -z 4
n -t 8.0 -s 1 -S UP -v circle -c red -x 359.79846 -y 183.0175 -z 4
n -t 8.0 -s 15 -S UP -v circle -c blue -x 11.316869 -y 18.903076 -z 4
n -t 8.999999 -s 1 -S UP -v circle -c red -x 354.9545 -y 181.77809 -z 4
n -t 8.999999 -s 15 -S UP -v circle -c blue -x 12.599308 -y 14.070339 -z 4
n -t 8.999999 -s 3 -S UP -v circle -c red -x 308.78888 -y 36.34047 -z 4
n -t 8.999999 -s 7 -S UP -v circle -c red -x 396.25452 -y 324.4091 -z 4
n -t 8.999999 -s 13 -S UP -v circle -c blue -x 69.378235 -y 27.566101 -z 4
n -t 8.999999 -s 9 -S UP -v circle -c blue -x 448.44736 -y 426.41013 -z 4
n -t 8.999999 -s 16 -S UP -v circle -c blue -x 212.73773 -y 176.54335 -z 4
n -t 8.999999 -s 18 -S UP -v circle -c blue -x 434.05774 -y 281.6553 -z 4
n -t 8.999999 -s 17 -S UP -v circle -c blue -x 82.00522 -y 128.40207 -z 4
n -t 8.999999 -s 4 -S UP -v circle -c red -x 124.44041 -y 393.05072 -z 4
n -t 8.999999 -s 19 -S UP -v circle -c blue -x 435.35468 -y 190.81273 -z 4
n -t 8.999999 -s 10 -S UP -v circle -c blue -x 227.6694 -y 193.38663 -z 4
n -t 8.999999 -s 2 -S UP -v circle -c red -x 58.001167 -y 146.14671 -z 4
n -t 8.999999 -s 5 -S UP -v circle -c red -x 455.63867 -y 235.69632 -z 4
n -t 8.999999 -s 11 -S UP -v circle -c blue -x 175.71895 -y 264.48657 -z 4
n -t 8.999999 -s 6 -S UP -v circle -c red -x 374.10013 -y 75.678055 -z 4
n -t 8.999999 -s 14 -S UP -v circle -c blue -x 307.8564 -y 337.4964 -z 4
n -t 8.999999 -s 8 -S UP -v circle -c red -x 91.84789 -y 268.51266 -z 4
n -t 10.0 -s 14 -S UP -v circle -c blue -x 311.7081 -y 334.3082 -z 4
n -t 10.0 -s 8 -S UP -v circle -c red -x 96.73176 -y 269.58405 -z 4
n -t 10.0 -s 16 -S UP -v circle -c blue -x 212.22374 -y 181.51686 -z 4
n -t 10.0 -s 15 -S UP -v circle -c blue -x 13.881747 -y 9.237602 -z 4
n -t 10.0 -s 1 -S UP -v circle -c red -x 350.11053 -y 180.53868 -z 4
n -t 10.0 -s 9 -S UP -v circle -c blue -x 449.62134 -y 431.27036 -z 4
n -t 10.0 -s 13 -S UP -v circle -c blue -x 66.45827 -y 23.507309 -z 4
n -t 10.0 -s 3 -S UP -v circle -c red -x 311.26053 -y 31.994095 -z 4
n -t 10.0 -s 7 -S UP -v circle -c red -x 398.57574 -y 328.83762 -z 4
n -t 10.0 -s 6 -S UP -v circle -c red -x 371.22717 -y 79.77025 -z 4
n -t 10.0 -s 11 -S UP -v circle -c blue -x 173.01595 -y 268.69296 -z 4
n -t 10.0 -s 5 -S UP -v circle -c red -x 457.53497 -y 240.32277 -z 4
n -t 10.0 -s 2 -S UP -v circle -c red -x 62.089596 -y 149.02504 -z 4
n -t 10.0 -s 10 -S UP -v circle -c blue -x 222.67491 -y 193.62114 -z 4
n -t 10.0 -s 19 -S UP -v circle -c blue -x 433.3412 -y 186.23607 -z 4
n -t 10.0 -s 4 -S UP -v circle -c red -x 128.55687 -y 395.88882 -z 4
n -t 10.0 -s 17 -S UP -v circle -c blue -x 87.00389 -y 128.51724 -z 4
n -t 10.0 -s 18 -S UP -v circle -c blue -x 430.75717 -y 285.41113 -z 4
n -t 11.000001 -s 9 -S UP -v circle -c blue -x 450.79532 -y 436.13058 -z 4
n -t 11.000001 -s 16 -S UP -v circle -c blue -x 211.70975 -y 186.49037 -z 4
n -t 11.000001 -s 1 -S UP -v circle -c red -x 345.26657 -y 179.29927 -z 4
n -t 11.000001 -s 15 -S UP -v circle -c blue -x 15.1641865 -y 4.404865 -z 4
n -t 11.000001 -s 13 -S UP -v circle -c blue -x 63.5383 -y 19.448517 -z 4
n -t 11.000001 -s 7 -S UP -v circle -c red -x 400.89697 -y 333.26614 -z 4
n -t 11.000001 -s 5 -S UP -v circle -c red -x 459.43127 -y 244.94922 -z 4
n -t 11.000001 -s 10 -S UP -v circle -c blue -x 217.68042 -y 193.85565 -z 4
n -t 11.000001 -s 19 -S UP -v circle -c blue -x 431.3277 -y 181.65941 -z 4
n -t 11.000001 -s 3 -S UP -v circle -c red -x 313.73218 -y 27.64772 -z 4
n -t 11.000001 -s 14 -S UP -v circle -c blue -x 315.55978 -y 331.12 -z 4
n -t 11.000001 -s 17 -S UP -v circle -c blue -x 92.00256 -y 128.63242 -z 4
n -t 11.000001 -s 4 -S UP -v circle -c red -x 132.67332 -y 398.72693 -z 4
n -t 11.000001 -s 11 -S UP -v circle -c blue -x 170.31294 -y 272.89935 -z 4
n -t 11.000001 -s 8 -S UP -v circle -c red -x 101.61562 -y 270.65543 -z 4
n -t 11.000001 -s 18 -S UP -v circle -c blue -x 427.4566 -y 289.16696 -z 4
n -t 11.000001 -s 6 -S UP -v circle -c red -x 368.35422 -y 83.86244 -z 4
n -t 11.000001 -s 2 -S UP -v circle -c red -x 66.178024 -y 151.90337 -z 4
n -t 12.0 -s 1 -S UP -v circle -c red -x 340.4226 -y 178.05986 -z 4
n -t 12.0 -s 9 -S UP -v circle -c blue -x 451.9693 -y 440.9908 -z 4
n -t 12.0 -s 16 -S UP -v circle -c blue -x 211.19576 -y 191.46388 -z 4
n -t 12.0 -s 8 -S UP -v circle -c red -x 106.49949 -y 271.7268 -z 4
n -t 12.0 -s 18 -S UP -v circle -c blue -x 424.15604 -y 292.9228 -z 4
n -t 12.0 -s 14 -S UP -v circle -c blue -x 319.41147 -y 327.9318 -z 4
n -t 12.0 -s 4 -S UP -v circle -c red -x 136.78978 -y 401.56503 -z 4
n -t 12.0 -s 19 -S UP -v circle -c blue -x 429.3142 -y 177.08275 -z 4
n -t 12.0 -s 13 -S UP -v circle -c blue -x 60.618332 -y 15.389724 -z 4
n -t 12.0 -s 17 -S UP -v circle -c blue -x 97.001236 -y 128.74759 -z 4
n -t 12.0 -s 2 -S UP -v circle -c red -x 70.26646 -y 154.7817 -z 4
n -t 12.0 -s 11 -S UP -v circle -c blue -x 167.60994 -y 277.10574 -z 4
n -t 12.0 -s 7 -S UP -v circle -c red -x 403.2182 -y 337.69467 -z 4
n -t 12.0 -s 10 -S UP -v circle -c blue -x 212.68593 -y 194.09016 -z 4
n -t 12.0 -s 6 -S UP -v circle -c red -x 365.48126 -y 87.954636 -z 4
n -t 12.0 -s 5 -S UP -v circle -c red -x 461.32758 -y 249.57567 -z 4
n -t 12.0 -s 3 -S UP -v circle -c red -x 316.20383 -y 23.301346 -z 4
n -t 12.999999 -s 16 -S UP -v circle -c blue -x 210.68176 -y 196.4374 -z 4
n -t 12.999999 -s 10 -S UP -v circle -c blue -x 207.69144 -y 194.32468 -z 4
n -t 12.999999 -s 17 -S UP -v circle -c blue -x 101.99991 -y 128.86276 -z 4
n -t 12.999999 -s 18 -S UP -v circle -c blue -x 420.85547 -y 296.67862 -z 4
n -t 12.999999 -s 8 -S UP -v circle -c red -x 111.383354 -y 272.7982 -z 4
n -t 12.999999 -s 1 -S UP -v circle -c red -x 335.57864 -y 176.82045 -z 4
n -t 12.999999 -s 9 -S UP -v circle -c blue -x 453.14328 -y 445.85104 -z 4
n -t 12.999999 -s 6 -S UP -v circle -c red -x 362.6083 -y 92.04683 -z 4
n -t 12.999999 -s 11 -S UP -v circle -c blue -x 164.90694 -y 281.31213 -z 4
n -t 12.999999 -s 2 -S UP -v circle -c red -x 74.35489 -y 157.66002 -z 4
n -t 12.999999 -s 3 -S UP -v circle -c red -x 318.67548 -y 18.954971 -z 4
n -t 12.999999 -s 7 -S UP -v circle -c red -x 405.53943 -y 342.1232 -z 4
n -t 12.999999 -s 5 -S UP -v circle -c red -x 463.22388 -y 254.20212 -z 4
n -t 12.999999 -s 13 -S UP -v circle -c blue -x 57.698364 -y 11.330931 -z 4
n -t 12.999999 -s 19 -S UP -v circle -c blue -x 427.30072 -y 172.50609 -z 4
n -t 12.999999 -s 14 -S UP -v circle -c blue -x 323.26315 -y 324.7436 -z 4
n -t 12.999999 -s 4 -S UP -v circle -c red -x 140.90623 -y 404.40314 -z 4
n -t 14.0 -s 1 -S UP -v circle -c red -x 330.73468 -y 175.58104 -z 4
n -t 14.0 -s 16 -S UP -v circle -c blue -x 210.16777 -y 201.4109 -z 4
n -t 14.0 -s 19 -S UP -v circle -c blue -x 425.28723 -y 167.92943 -z 4
n -t 14.0 -s 14 -S UP -v circle -c blue -x 327.11484 -y 321.5554 -z 4
n -t 14.0 -s 8 -S UP -v circle -c red -x 116.26722 -y 273.86957 -z 4
n -t 14.0 -s 4 -S UP -v circle -c red -x 145.02269 -y 407.24124 -z 4
n -t 14.0 -s 10 -S UP -v circle -c blue -x 202.69695 -y 194.55919 -z 4
n -t 14.0 -s 2 -S UP -v circle -c red -x 78.44332 -y 160.53835 -z 4
n -t 14.0 -s 18 -S UP -v circle -c blue -x 417.5549 -y 300.43445 -z 4
n -t 14.0 -s 3 -S UP -v circle -c red -x 321.14713 -y 14.608596 -z 4
n -t 14.0 -s 17 -S UP -v circle -c blue -x 106.99858 -y 128.97794 -z 4
n -t 14.0 -s 7 -S UP -v circle -c red -x 407.86066 -y 346.55173 -z 4
n -t 14.0 -s 13 -S UP -v circle -c blue -x 54.778397 -y 7.272138 -z 4
n -t 14.0 -s 11 -S UP -v circle -c blue -x 162.20393 -y 285.51852 -z 4
n -t 14.0 -s 9 -S UP -v circle -c blue -x 454.31726 -y 450.71127 -z 4
n -t 14.0 -s 6 -S UP -v circle -c red -x 359.73535 -y 96.13902 -z 4
n -t 14.0 -s 5 -S UP -v circle -c red -x 465.12018 -y 258.82858 -z 4
n -t 15.000001 -s 7 -S UP -v circle -c red -x 410.1819 -y 350.98026 -z 4
n -t 15.000001 -s 16 -S UP -v circle -c blue -x 209.65378 -y 206.38441 -z 4
n -t 15.000001 -s 6 -S UP -v circle -c red -x 356.8624 -y 100.23122 -z 4
n -t 15.000001 -s 4 -S UP -v circle -c red -x 149.13914 -y 410.07935 -z 4
n -t 15.000001 -s 9 -S UP -v circle -c blue -x 455.49124 -y 455.5715 -z 4
n -t 15.000001 -s 5 -S UP -v circle -c red -x 467.01648 -y 263.45505 -z 4
n -t 15.000001 -s 1 -S UP -v circle -c red -x 325.89072 -y 174.34163 -z 4
n -t 15.000001 -s 19 -S UP -v circle -c blue -x 423.27374 -y 163.35277 -z 4
n -t 15.000001 -s 14 -S UP -v circle -c blue -x 330.96652 -y 318.3672 -z 4
n -t 15.000001 -s 2 -S UP -v circle -c red -x 82.53175 -y 163.41667 -z 4
n -t 15.000001 -s 10 -S UP -v circle -c blue -x 197.70245 -y 194.7937 -z 4
n -t 15.000001 -s 3 -S UP -v circle -c red -x 323.61877 -y 10.26222 -z 4
n -t 15.000001 -s 8 -S UP -v circle -c red -x 121.151085 -y 274.94095 -z 4
n -t 15.000001 -s 18 -S UP -v circle -c blue -x 414.25433 -y 304.19028 -z 4
n -t 15.000001 -s 17 -S UP -v circle -c blue -x 111.99725 -y 129.09311 -z 4
n -t 15.000001 -s 11 -S UP -v circle -c blue -x 159.50093 -y 289.7249 -z 4
n -t 15.000001 -s 13 -S UP -v circle -c blue -x 51.85843 -y 3.2133453 -z 4
n -t 16.0 -s 19 -S UP -v circle -c blue -x 421.26025 -y 158.77611 -z 4
n -t 16.0 -s 2 -S UP -v circle -c red -x 86.620186 -y 166.295 -z 4
n -t 16.0 -s 5 -S UP -v circle -c red -x 468.91278 -y 268.0815 -z 4
n -t 16.0 -s 6 -S UP -v circle -c red -x 353.98944 -y 104.32341 -z 4
n -t 16.0 -s 11 -S UP -v circle -c blue -x 156.79793 -y 293.9313 -z 4
n -t 16.0 -s 16 -S UP -v circle -c blue -x 209.13979 -y 211.35793 -z 4
n -t 16.0 -s 8 -S UP -v circle -c red -x 126.03495 -y 276.01233 -z 4
n -t 16.0 -s 17 -S UP -v circle -c blue -x 116.995926 -y 129.20828 -z 4
n -t 16.0 -s 7 -S UP -v circle -c red -x 412.5031 -y 355.40878 -z 4
n -t 16.0 -s 1 -S UP -v circle -c red -x 321.04675 -y 173.10222 -z 4
n -t 16.0 -s 9 -S UP -v circle -c blue -x 456.66522 -y 460.43173 -z 4
n -t 16.0 -s 4 -S UP -v circle -c red -x 153.2556 -y 412.91745 -z 4
n -t 16.0 -s 14 -S UP -v circle -c blue -x 334.8182 -y 315.179 -z 4
n -t 16.0 -s 3 -S UP -v circle -c red -x 326.09042 -y 5.9158454 -z 4
n -t 16.0 -s 10 -S UP -v circle -c blue -x 192.70796 -y 195.02821 -z 4
n -t 16.0 -s 18 -S UP -v circle -c blue -x 410.95377 -y 307.9461 -z 4
n -t 17.0 -s 16 -S UP -v circle -c blue -x 208.6258 -y 216.33144 -z 4
n -t 17.0 -s 9 -S UP -v circle -c blue -x 457.8392 -y 465.29196 -z 4
n -t 17.0 -s 19 -S UP -v circle -c blue -x 419.24677 -y 154.19945 -z 4
n -t 17.0 -s 14 -S UP -v circle -c blue -x 338.6699 -y 311.99078 -z 4
n -t 17.0 -s 10 -S UP -v circle -c blue -x 187.71347 -y 195.26273 -z 4
n -t 17.0 -s 11 -S UP -v circle -c blue -x 154.09492 -y 298.1377 -z 4
n -t 17.0 -s 17 -S UP -v circle -c blue -x 121.9946 -y 129.32346 -z 4
n -t 17.0 -s 6 -S UP -v circle -c red -x 351.1165 -y 108.4156 -z 4
n -t 17.0 -s 2 -S UP -v circle -c red -x 90.70862 -y 169.17332 -z 4
n -t 17.0 -s 5 -S UP -v circle -c red -x 470.80908 -y 272.70798 -z 4
n -t 17.0 -s 8 -S UP -v circle -c red -x 130.91881 -y 277.0837 -z 4
n -t 17.0 -s 1 -S UP -v circle -c red -x 316.2028 -y 171.86281 -z 4
n -t 17.0 -s 7 -S UP -v circle -c red -x 414.82434 -y 359.8373 -z 4
n -t 17.0 -s 18 -S UP -v circle -c blue -x 407.6532 -y 311.70193 -z 4
n -t 17.0 -s 4 -S UP -v circle -c red -x 157.37206 -y 415.75555 -z 4
n -t 17.0 -s 3 -S UP -v circle -c red -x 328.56207 -y 1.5694703 -z 4
n -t 17.999998 -s 9 -S UP -v circle -c blue -x 459.01318 -y 470.1522 -z 4
n -t 17.999998 -s 16 -S UP -v circle -c blue -x 208.1118 -y 221.30495 -z 4
n -t 17.999998 -s 7 -S UP -v circle -c red -x 417.14557 -y 364.26584 -z 4
n -t 17.999998 -s 11 -S UP -v circle -c blue -x 151.39192 -y 302.3441 -z 4
n -t 17.999998 -s 19 -S UP -v circle -c blue -x 417.23328 -y 149.62279 -z 4
n -t 17.999998 -s 4 -S UP -v circle -c red -x 161.48851 -y 418.59366 -z 4
n -t 17.999998 -s 14 -S UP -v circle -c blue -x 342.52158 -y 308.80258 -z 4
n -t 17.999998 -s 2 -S UP -v circle -c red -x 94.79705 -y 172.05165 -z 4
n -t 17.999998 -s 10 -S UP -v circle -c blue -x 182.71898 -y 195.49724 -z 4
n -t 17.999998 -s 6 -S UP -v circle -c red -x 348.24353 -y 112.5078 -z 4
n -t 17.999998 -s 17 -S UP -v circle -c blue -x 126.99327 -y 129.43863 -z 4
n -t 17.999998 -s 18 -S UP -v circle -c blue -x 404.35263 -y 315.45776 -z 4
n -t 17.999998 -s 5 -S UP -v circle -c red -x 472.70538 -y 277.33444 -z 4
n -t 17.999998 -s 1 -S UP -v circle -c red -x 311.35883 -y 170.6234 -z 4
n -t 17.999998 -s 8 -S UP -v circle -c red -x 135.80267 -y 278.1551 -z 4
n -t 19.0 -s 11 -S UP -v circle -c blue -x 148.68892 -y 306.55048 -z 4
n -t 19.0 -s 16 -S UP -v circle -c blue -x 207.59781 -y 226.27846 -z 4
n -t 19.0 -s 7 -S UP -v circle -c red -x 419.4668 -y 368.69437 -z 4
n -t 19.0 -s 1 -S UP -v circle -c red -x 306.51486 -y 169.38399 -z 4
n -t 19.0 -s 18 -S UP -v circle -c blue -x 401.05206 -y 319.2136 -z 4
n -t 19.0 -s 19 -S UP -v circle -c blue -x 415.2198 -y 145.04613 -z 4
n -t 19.0 -s 5 -S UP -v circle -c red -x 474.60168 -y 281.9609 -z 4
n -t 19.0 -s 9 -S UP -v circle -c blue -x 460.18716 -y 475.01242 -z 4
n -t 19.0 -s 14 -S UP -v circle -c blue -x 346.37326 -y 305.61438 -z 4
n -t 19.0 -s 4 -S UP -v circle -c red -x 165.60497 -y 421.43176 -z 4
n -t 19.0 -s 17 -S UP -v circle -c blue -x 131.99194 -y 129.5538 -z 4
n -t 19.0 -s 2 -S UP -v circle -c red -x 98.88548 -y 174.92998 -z 4
n -t 19.0 -s 6 -S UP -v circle -c red -x 345.37057 -y 116.59999 -z 4
n -t 19.0 -s 10 -S UP -v circle -c blue -x 177.72449 -y 195.73175 -z 4
n -t 19.0 -s 8 -S UP -v circle -c red -x 140.68654 -y 279.22647 -z 4
n -t 20.0 -s 18 -S UP -v circle -c blue -x 397.7515 -y 322.96942 -z 4
n -t 20.0 -s 16 -S UP -v circle -c blue -x 207.08382 -y 231.25197 -z 4
n -t 20.0 -s 6 -S UP -v circle -c red -x 342.49762 -y 120.692184 -z 4
n -t 20.0 -s 7 -S UP -v circle -c red -x 421.78802 -y 373.1229 -z 4
n -t 20.0 -s 17 -S UP -v circle -c blue -x 136.99062 -y 129.66898 -z 4
n -t 20.0 -s 1 -S UP -v circle -c red -x 301.6709 -y 168.14458 -z 4
n -t 20.0 -s 11 -S UP -v circle -c blue -x 145.98592 -y 310.75687 -z 4
n -t 20.0 -s 8 -S UP -v circle -c red -x 145.5704 -y 280.29785 -z 4
n -t 20.0 -s 19 -S UP -v circle -c blue -x 413.2063 -y 140.46947 -z 4
n -t 20.0 -s 4 -S UP -v circle -c red -x 169.72142 -y 424.26987 -z 4
n -t 20.0 -s 5 -S UP -v circle -c red -x 476.498 -y 286.58737 -z 4
n -t 20.0 -s 14 -S UP -v circle -c blue -x 350.22495 -y 302.42618 -z 4
n -t 20.0 -s 9 -S UP -v circle -c blue -x 461.36115 -y 479.87265 -z 4
n -t 20.0 -s 10 -S UP -v circle -c blue -x 172.73 -y 195.96626 -z 4
n -t 20.0 -s 2 -S UP -v circle -c red -x 102.973915 -y 177.8083 -z 4
n -t 21.0 -s 7 -S UP -v circle -c red -x 424.10925 -y 377.55142 -z 4
n -t 21.0 -s 16 -S UP -v circle -c blue -x 206.56982 -y 236.22548 -z 4
n -t 21.0 -s 14 -S UP -v circle -c blue -x 354.07663 -y 299.23798 -z 4
n -t 21.0 -s 1 -S UP -v circle -c red -x 296.82693 -y 166.90517 -z 4
n -t 21.0 -s 17 -S UP -v circle -c blue -x 141.98929 -y 129.78415 -z 4
n -t 21.0 -s 6 -S UP -v circle -c red -x 339.62466 -y 124.78438 -z 4
n -t 21.0 -s 18 -S UP -v circle -c blue -x 394.45093 -y 326.72525 -z 4
n -t 21.0 -s 11 -S UP -v circle -c blue -x 143.28291 -y 314.96326 -z 4
n -t 21.0 -s 19 -S UP -v circle -c blue -x 411.1928 -y 135.8928 -z 4
n -t 21.0 -s 8 -S UP -v circle -c red -x 150.45427 -y 281.36923 -z 4
n -t 21.0 -s 5 -S UP -v circle -c red -x 478.3943 -y 291.21384 -z 4
n -t 21.0 -s 4 -S UP -v circle -c red -x 173.83788 -y 427.10797 -z 4
n -t 21.0 -s 10 -S UP -v circle -c blue -x 167.7355 -y 196.20078 -z 4
n -t 21.0 -s 12 -S UP -v circle -c blue -x 2.7075179 -y 70.77775 -z 4
n -t 21.0 -s 9 -S UP -v circle -c blue -x 462.53513 -y 484.73288 -z 4
n -t 21.0 -s 2 -S UP -v circle -c red -x 107.06235 -y 180.68663 -z 4
n -t 22.000002 -s 9 -S UP -v circle -c blue -x 463.7091 -y 489.5931 -z 4
n -t 22.000002 -s 7 -S UP -v circle -c red -x 426.43048 -y 381.97995 -z 4
n -t 22.000002 -s 1 -S UP -v circle -c red -x 291.98297 -y 165.66576 -z 4
n -t 22.000002 -s 19 -S UP -v circle -c blue -x 409.17932 -y 131.31615 -z 4
n -t 22.000002 -s 14 -S UP -v circle -c blue -x 357.9283 -y 296.04977 -z 4
n -t 22.000002 -s 12 -S UP -v circle -c blue -x 6.2704816 -y 74.28564 -z 4
n -t 22.000002 -s 16 -S UP -v circle -c blue -x 206.05583 -y 241.19899 -z 4
n -t 22.000002 -s 17 -S UP -v circle -c blue -x 146.98796 -y 129.89932 -z 4
n -t 22.000002 -s 11 -S UP -v circle -c blue -x 140.57991 -y 319.16965 -z 4
n -t 22.000002 -s 18 -S UP -v circle -c blue -x 391.15036 -y 330.48108 -z 4
n -t 22.000002 -s 6 -S UP -v circle -c red -x 336.7517 -y 128.87657 -z 4
n -t 22.000002 -s 2 -S UP -v circle -c red -x 111.15078 -y 183.56496 -z 4
n -t 22.000002 -s 5 -S UP -v circle -c red -x 480.2906 -y 295.8403 -z 4
n -t 22.000002 -s 8 -S UP -v circle -c red -x 155.33813 -y 282.4406 -z 4
n -t 22.000002 -s 10 -S UP -v circle -c blue -x 162.74101 -y 196.43529 -z 4
n -t 22.000002 -s 4 -S UP -v circle -c red -x 177.95433 -y 429.94608 -z 4
n -t 23.0 -s 1 -S UP -v circle -c red -x 287.139 -y 164.42635 -z 4
n -t 23.0 -s 14 -S UP -v circle -c blue -x 361.78 -y 292.86157 -z 4