# Trace file generated by Jist/Swans Version 1.0.6. at Sun Jul 21 16:26:43 BRT 2013
V -t * -v 1.0a5 -a 0
W -t * -x 410 -y 410
A -t * -n 1 -p 0 -o 0xffffffff -c 31 -a 1
A -t * -h 1 -m 2147483647 -s 0
n -t 0.0 -s 1 -S UP -v circle -c red -x 397.6015 -y 195.02615 -z 4
n -t 0.0 -s 2 -S UP -v circle -c red -x 437.59204 -y 481.85968 -z 4
n -t 0.0 -s 3 -S UP -v circle -c red -x 263.2389 -y 197.66623 -z 4
n -t 0.0 -s 4 -S UP -v circle -c red -x 168.3169 -y 77.42372 -z 4
n -t 0.0 -s 5 -S UP -v circle -c red -x 158.78981 -y 349.14758 -z 4
n -t 0.0 -s 6 -S UP -v circle -c red -x 215.34044 -y 255.77783 -z 4
n -t 0.0 -s 7 -S UP -v circle -c red -x 475.25 -y 241.99545 -z 4
n -t 0.0 -s 8 -S UP -v circle -c red -x 238.32193 -y 413.24704 -z 4
n -t 0.0 -s 9 -S UP -v circle -c blue -x 433.45667 -y 302.00327 -z 4
n -t 0.0 -s 10 -S UP -v circle -c blue -x 440.087 -y 96.6143 -z 4
n -t 0.0 -s 11 -S UP -v circle -c blue -x 94.7459 -y 124.976036 -z 4
n -t 0.0 -s 12 -S UP -v circle -c blue -x 141.93732 -y 104.09263 -z 4
n -t 0.0 -s 13 -S UP -v circle -c blue -x 423.06647 -y 177.93623 -z 4
n -t 0.0 -s 14 -S UP -v circle -c blue -x 253.17851 -y 414.16245 -z 4
n -t 0.0 -s 15 -S UP -v circle -c blue -x 462.94757 -y 82.792404 -z 4
n -t 0.0 -s 16 -S UP -v circle -c blue -x 208.2457 -y 175.79642 -z 4
n -t 0.0 -s 17 -S UP -v circle -c blue -x 450.4767 -y 31.160772 -z 4
n -t 0.0 -s 18 -S UP -v circle -c blue -x 335.66916 -y 135.79369 -z 4
n -t 0.0 -s 19 -S UP -v circle -c blue -x 317.30334 -y 184.42085 -z 4
n -t 0.0 -s 20 -S UP -v circle -c blue -x 470.74332 -y 135.7365 -z 4
n -t 0.0 -s 21 -S UP -v circle -c blue -x 180.75273 -y 353.82394 -z 4
n -t 0.0 -s 22 -S UP -v circle -c blue -x 227.45473 -y 57.956608 -z 4
n -t 0.0 -s 23 -S UP -v circle -c blue -x 441.18756 -y 203.13654 -z 4
n -t 0.0 -s 24 -S UP -v circle -c blue -x 371.49454 -y 235.78015 -z 4
n -t 0.0 -s 25 -S UP -v circle -c blue -x 365.27353 -y 378.413 -z 4
n -t 0.0 -s 26 -S UP -v circle -c blue -x 343.72018 -y 415.57202 -z 4
n -t 0.0 -s 27 -S UP -v circle -c blue -x 409.9418 -y 14.506102 -z 4
n -t 0.0 -s 28 -S UP -v circle -c blue -x 448.11472 -y 187.52448 -z 4
n -t 0.0 -s 29 -S UP -v circle -c blue -x 105.451614 -y 250.23889 -z 4
n -t 0.0 -s 30 -S UP -v circle -c blue -x 58.192997 -y 107.9686 -z 4
n -t 0.0 -s 31 -S UP -v circle -c blue -x 440.56738 -y 169.10556 -z 4
n -t 0.0 -s 32 -S UP -v circle -c blue -x 296.16946 -y 260.90714 -z 4
n -t 0.0 -s 33 -S UP -v circle -c blue -x 181.70529 -y 271.21298 -z 4
n -t 0.0 -s 34 -S UP -v circle -c blue -x 377.47818 -y 141.58502 -z 4
n -t 0.0 -s 35 -S UP -v circle -c blue -x 268.88266 -y 437.12814 -z 4
n -t 0.0 -s 36 -S UP -v circle -c blue -x 184.04922 -y 154.7826 -z 4
n -t 0.0 -s 37 -S UP -v circle -c blue -x 402.01443 -y 213.49803 -z 4
n -t 0.0 -s 38 -S UP -v circle -c blue -x 369.9126 -y 268.12286 -z 4
n -t 0.0 -s 39 -S UP -v circle -c blue -x 3.8361251 -y 192.84782 -z 4
n -t 0.0 -s 40 -S UP -v circle -c blue -x 16.227663 -y 32.453835 -z 4
n -t 0.0 -s 41 -S UP -v circle -c blue -x 192.45616 -y 170.85269 -z 4
n -t 0.0 -s 42 -S UP -v circle -c blue -x 135.91019 -y 12.164772 -z 4
n -t 0.0 -s 43 -S UP -v circle -c blue -x 43.92153 -y 499.5797 -z 4
n -t 0.0 -s 44 -S UP -v circle -c blue -x 394.03366 -y 166.41945 -z 4
n -t 0.0 -s 45 -S UP -v circle -c blue -x 279.55887 -y 56.60203 -z 4
n -t 0.0 -s 46 -S UP -v circle -c blue -x 214.68047 -y 294.48154 -z 4
n -t 0.0 -s 47 -S UP -v circle -c blue -x 385.26938 -y 170.33032 -z 4
n -t 0.0 -s 48 -S UP -v circle -c blue -x 310.66467 -y 234.74014 -z 4
n -t 0.0 -s 49 -S UP -v circle -c blue -x 301.12952 -y 170.15488 -z 4
n -t 0.0 -s 50 -S UP -v circle -c blue -x 414.48758 -y 166.33156 -z 4
n -t 0.0 -s 51 -S UP -v circle -c blue -x 4.993349 -y 415.755 -z 4
n -t 0.0 -s 52 -S UP -v circle -c blue -x 39.1424 -y 456.4484 -z 4
n -t 0.0 -s 53 -S UP -v circle -c blue -x 28.399557 -y 238.85182 -z 4
n -t 0.0 -s 54 -S UP -v circle -c blue -x 130.27748 -y 276.01526 -z 4
n -t 0.0 -s 55 -S UP -v circle -c blue -x 466.7491 -y 449.3416 -z 4
n -t 0.0 -s 56 -S UP -v circle -c blue -x 28.25889 -y 445.31946 -z 4
n -t 0.0 -s 57 -S UP -v circle -c blue -x 87.90263 -y 498.66653 -z 4
n -t 0.0 -s 58 -S UP -v circle -c blue -x 273.53583 -y 91.777176 -z 4
n -t 0.0 -s 59 -S UP -v circle -c blue -x 468.21652 -y 99.91533 -z 4
n -t 0.0 -s 60 -S UP -v circle -c blue -x 112.28374 -y 400.09143 -z 4
n -t 0.0 -s 61 -S UP -v circle -c blue -x 136.4378 -y 205.89584 -z 4
n -t 0.0 -s 62 -S UP -v circle -c blue -x 484.64966 -y 104.857414 -z 4
n -t 0.0 -s 63 -S UP -v circle -c blue -x 232.34596 -y 83.609344 -z 4
n -t 0.0 -s 64 -S UP -v circle -c blue -x 65.30106 -y 34.867107 -z 4
n -t 0.0 -s 65 -S UP -v circle -c blue -x 366.7882 -y 472.46246 -z 4
n -t 0.0 -s 66 -S UP -v circle -c blue -x 327.83047 -y 233.07404 -z 4
n -t 0.0 -s 67 -S UP -v circle -c blue -x 435.7124 -y 111.37343 -z 4
n -t 0.0 -s 68 -S UP -v circle -c blue -x 490.5175 -y 485.94858 -z 4
n -t 0.0 -s 69 -S UP -v circle -c blue -x 5.5574775 -y 489.81778 -z 4
n -t 0.0 -s 70 -S UP -v circle -c blue -x 182.81708 -y 438.7769 -z 4
n -t 0.0 -s 71 -S UP -v circle -c blue -x 268.20044 -y 453.89154 -z 4
n -t 0.0 -s 72 -S UP -v circle -c blue -x 228.72997 -y 310.75195 -z 4
n -t 0.0 -s 73 -S UP -v circle -c blue -x 107.551186 -y 50.669403 -z 4
n -t 0.0 -s 74 -S UP -v circle -c blue -x 46.111496 -y 165.34454 -z 4
n -t 0.0 -s 75 -S UP -v circle -c blue -x 228.49745 -y 453.45663 -z 4
n -t 0.0 -s 76 -S UP -v circle -c blue -x 398.36465 -y 120.717255 -z 4
n -t 0.0 -s 77 -S UP -v circle -c blue -x 453.57382 -y 293.87375 -z 4
n -t 0.0 -s 78 -S UP -v circle -c blue -x 437.4115 -y 83.60258 -z 4
n -t 0.0 -s 79 -S UP -v circle -c blue -x 379.50015 -y 261.90125 -z 4
n -t 0.0 -s 80 -S UP -v circle -c blue -x 342.09662 -y 363.27466 -z 4
n -t 0.0 -s 81 -S UP -v circle -c blue -x 220.3264 -y 285.81885 -z 4
n -t 0.0 -s 82 -S UP -v circle -c blue -x 74.18773 -y 323.62494 -z 4
n -t 0.0 -s 83 -S UP -v circle -c blue -x 16.744883 -y 295.10782 -z 4
n -t 0.0 -s 84 -S UP -v circle -c blue -x 152.03148 -y 287.94623 -z 4
n -t 0.0 -s 85 -S UP -v circle -c blue -x 312.2822 -y 411.4889 -z 4
n -t 0.0 -s 86 -S UP -v circle -c blue -x 429.01544 -y 348.3352 -z 4
n -t 0.0 -s 87 -S UP -v circle -c blue -x 41.349857 -y 27.923943 -z 4
n -t 0.0 -s 88 -S UP -v circle -c blue -x 76.77886 -y 198.55827 -z 4
n -t 0.0 -s 89 -S UP -v circle -c blue -x 325.98492 -y 80.13907 -z 4
n -t 0.0 -s 90 -S UP -v circle -c blue -x 220.30312 -y 403.15836 -z 4
n -t 0.0 -s 91 -S UP -v circle -c blue -x 276.71228 -y 308.48376 -z 4
n -t 0.0 -s 92 -S UP -v circle -c blue -x 479.46982 -y 207.3082 -z 4
n -t 0.0 -s 93 -S UP -v circle -c blue -x 57.153404 -y 454.12173 -z 4
n -t 0.0 -s 94 -S UP -v circle -c blue -x 307.47385 -y 50.679924 -z 4
n -t 0.0 -s 95 -S UP -v circle -c blue -x 25.331228 -y 347.98645 -z 4
n -t 0.0 -s 96 -S UP -v circle -c blue -x 115.867645 -y 367.07416 -z 4
n -t 0.0 -s 97 -S UP -v circle -c blue -x 260.2954 -y 284.89508 -z 4
n -t 0.0 -s 98 -S UP -v circle -c blue -x 366.43692 -y 170.85081 -z 4
n -t 0.0 -s 99 -S UP -v circle -c blue -x 328.63254 -y 440.91006 -z 4
n -t 0.0 -s 100 -S UP -v circle -c blue -x 336.1952 -y 265.8758 -z 4
n -t 0.0 -s 101 -S UP -v circle -c blue -x 29.222727 -y 487.607 -z 4
n -t 0.0 -s 102 -S UP -v circle -c blue -x 110.3507 -y 475.7347 -z 4
n -t 0.0 -s 103 -S UP -v circle -c blue -x 168.54903 -y 291.43793 -z 4
n -t 0.0 -s 104 -S UP -v circle -c blue -x 383.1478 -y 421.78873 -z 4
n -t 0.0 -s 105 -S UP -v circle -c blue -x 184.9274 -y 304.88614 -z 4
n -t 0.0 -s 106 -S UP -v circle -c blue -x 194.2097 -y 53.125202 -z 4
n -t 0.0 -s 107 -S UP -v circle -c blue -x 234.86491 -y 64.55248 -z 4
n -t 0.0 -s 108 -S UP -v circle -c blue -x 261.78546 -y 117.88476 -z 4
n -t 0.0 -s 109 -S UP -v circle -c blue -x 434.7195 -y 301.5852 -z 4
n -t 0.0 -s 110 -S UP -v circle -c blue -x 299.70218 -y 215.56833 -z 4
n -t 0.0 -s 111 -S UP -v circle -c blue -x 376.9611 -y 444.8009 -z 4
n -t 0.0 -s 112 -S UP -v circle -c blue -x 194.59427 -y 164.91464 -z 4
n -t 0.0 -s 113 -S UP -v circle -c blue -x 303.34378 -y 495.20978 -z 4
n -t 0.0 -s 114 -S UP -v circle -c blue -x 239.06664 -y 490.40726 -z 4
n -t 0.0 -s 115 -S UP -v circle -c blue -x 462.6026 -y 72.1631 -z 4
n -t 0.0 -s 116 -S UP -v circle -c blue -x 446.9803 -y 474.46945 -z 4
n -t 0.0 -s 117 -S UP -v circle -c blue -x 432.98386 -y 161.62888 -z 4
n -t 0.0 -s 118 -S UP -v circle -c blue -x 243.33841 -y 442.42303 -z 4
n -t 0.0 -s 119 -S UP -v circle -c blue -x 79.78812 -y 232.75313 -z 4
n -t 0.0 -s 120 -S UP -v circle -c blue -x 314.8064 -y 267.25137 -z 4
n -t 0.0 -s 121 -S UP -v circle -c blue -x 304.62866 -y 262.40256 -z 4
n -t 0.0 -s 122 -S UP -v circle -c blue -x 411.41064 -y 173.47812 -z 4
n -t 0.0 -s 123 -S UP -v circle -c blue -x 340.4346 -y 112.261894 -z 4
n -t 0.0 -s 124 -S UP -v circle -c blue -x 306.3055 -y 229.85434 -z 4
n -t 0.0 -s 125 -S UP -v circle -c blue -x 248.21788 -y 18.674612 -z 4
n -t 0.0 -s 126 -S UP -v circle -c blue -x 91.74561 -y 293.2753 -z 4
n -t 0.0 -s 127 -S UP -v circle -c blue -x 476.8012 -y 272.0982 -z 4
n -t 0.0 -s 128 -S UP -v circle -c blue -x 25.801659 -y 469.099 -z 4
n -t 0.0 -s 129 -S UP -v circle -c blue -x 283.29852 -y 407.0661 -z 4
n -t 0.0 -s 130 -S UP -v circle -c blue -x 248.35652 -y 401.92743 -z 4
n -t 0.0 -s 131 -S UP -v circle -c blue -x 463.05762 -y 282.11224 -z 4
n -t 0.0 -s 132 -S UP -v circle -c blue -x 476.14188 -y 195.48642 -z 4
n -t 0.0 -s 133 -S UP -v circle -c blue -x 365.6178 -y 275.37064 -z 4
n -t 0.0 -s 134 -S UP -v circle -c blue -x 126.8405 -y 168.49017 -z 4
n -t 0.0 -s 135 -S UP -v circle -c blue -x 45.28308 -y 139.58585 -z 4
n -t 0.0 -s 136 -S UP -v circle -c blue -x 440.59088 -y 196.72993 -z 4
n -t 0.0 -s 137 -S UP -v circle -c blue -x 8.142054 -y 370.08804 -z 4
n -t 0.0 -s 138 -S UP -v circle -c blue -x 284.77856 -y 429.94193 -z 4
n -t 0.0 -s 139 -S UP -v circle -c blue -x 323.43588 -y 221.84988 -z 4
n -t 0.0 -s 140 -S UP -v circle -c blue -x 283.1621 -y 338.59238 -z 4
n -t 0.0 -s 141 -S UP -v circle -c blue -x 497.43408 -y 333.94876 -z 4
n -t 0.0 -s 142 -S UP -v circle -c blue -x 283.7288 -y 372.30252 -z 4
n -t 0.0 -s 143 -S UP -v circle -c blue -x 398.46036 -y 59.43966 -z 4
n -t 0.0 -s 144 -S UP -v circle -c blue -x 418.957 -y 53.40305 -z 4
n -t 0.0 -s 145 -S UP -v circle -c blue -x 38.137318 -y 169.56758 -z 4
n -t 0.0 -s 146 -S UP -v circle -c blue -x 57.323067 -y 289.66345 -z 4
n -t 0.0 -s 147 -S UP -v circle -c blue -x 76.70534 -y 178.12506 -z 4
n -t 0.0 -s 148 -S UP -v circle -c blue -x 353.05676 -y 46.645493 -z 4
n -t 0.0 -s 149 -S UP -v circle -c blue -x 129.50653 -y 275.23047 -z 4
n -t 0.0 -s 150 -S UP -v circle -c blue -x 171.6398 -y 147.86055 -z 4
n -t 0.0 -s 151 -S UP -v circle -c blue -x 212.20367 -y 141.45314 -z 4
n -t 0.0 -s 152 -S UP -v circle -c blue -x 67.85873 -y 268.90424 -z 4
n -t 0.0 -s 153 -S UP -v circle -c blue -x 308.49146 -y 440.55457 -z 4
n -t 0.0 -s 154 -S UP -v circle -c blue -x 380.05786 -y 207.35106 -z 4
n -t 0.0 -s 155 -S UP -v circle -c blue -x 465.11893 -y 230.61674 -z 4
n -t 0.0 -s 156 -S UP -v circle -c blue -x 154.47151 -y 64.22618 -z 4
n -t 0.0 -s 157 -S UP -v circle -c blue -x 83.82091 -y 143.37653 -z 4
n -t 0.0 -s 158 -S UP -v circle -c blue -x 45.20908 -y 284.56488 -z 4
n -t 0.0 -s 159 -S UP -v circle -c blue -x 61.792583 -y 425.51242 -z 4
n -t 0.0 -s 160 -S UP -v circle -c blue -x 433.88177 -y 316.59805 -z 4
n -t 0.0 -s 161 -S UP -v circle -c blue -x 434.8511 -y 114.71161 -z 4
n -t 0.0 -s 162 -S UP -v circle -c blue -x 155.43079 -y 352.58112 -z 4
n -t 0.0 -s 163 -S UP -v circle -c blue -x 58.33003 -y 499.77887 -z 4
n -t 0.0 -s 164 -S UP -v circle -c blue -x 398.07733 -y 373.76065 -z 4
n -t 0.0 -s 165 -S UP -v circle -c blue -x 157.63441 -y 435.98914 -z 4
n -t 0.0 -s 166 -S UP -v circle -c blue -x 302.2804 -y 100.43862 -z 4
n -t 0.0 -s 167 -S UP -v circle -c blue -x 135.5418 -y 113.40529 -z 4
n -t 0.0 -s 168 -S UP -v circle -c blue -x 120.15882 -y 31.974524 -z 4
n -t 0.0 -s 169 -S UP -v circle -c blue -x 108.729454 -y 402.009 -z 4
n -t 0.0 -s 170 -S UP -v circle -c blue -x 109.20873 -y 285.7207 -z 4
n -t 0.0 -s 171 -S UP -v circle -c blue -x 88.31102 -y 279.1772 -z 4
n -t 0.0 -s 172 -S UP -v circle -c blue -x 335.69586 -y 416.62225 -z 4
n -t 0.0 -s 173 -S UP -v circle -c blue -x 24.716467 -y 24.176508 -z 4
n -t 0.0 -s 174 -S UP -v circle -c blue -x 209.39986 -y 227.26218 -z 4
n -t 0.0 -s 175 -S UP -v circle -c blue -x 417.0862 -y 493.77612 -z 4
n -t 0.0 -s 176 -S UP -v circle -c blue -x 185.18016 -y 191.67603 -z 4
n -t 0.0 -s 177 -S UP -v circle -c blue -x 82.197426 -y 361.56116 -z 4
n -t 0.0 -s 178 -S UP -v circle -c blue -x 463.06927 -y 93.90745 -z 4
n -t 0.0 -s 179 -S UP -v circle -c blue -x 283.20367 -y 160.77695 -z 4
n -t 0.0 -s 180 -S UP -v circle -c blue -x 129.40115 -y 176.0797 -z 4
n -t 0.0 -s 181 -S UP -v circle -c blue -x 209.25182 -y 352.18875 -z 4
n -t 0.0 -s 182 -S UP -v circle -c blue -x 181.17326 -y 251.20717 -z 4
n -t 0.0 -s 183 -S UP -v circle -c blue -x 53.12088 -y 191.08597 -z 4
n -t 0.0 -s 184 -S UP -v circle -c blue -x 305.91757 -y 136.98804 -z 4
n -t 0.0 -s 185 -S UP -v circle -c blue -x 364.88568 -y 473.7142 -z 4
n -t 0.0 -s 186 -S UP -v circle -c blue -x 183.51692 -y 330.77124 -z 4
n -t 0.0 -s 187 -S UP -v circle -c blue -x 229.39822 -y 346.54016 -z 4
n -t 0.0 -s 188 -S UP -v circle -c blue -x 85.52059 -y 268.57654 -z 4
n -t 0.0 -s 189 -S UP -v circle -c blue -x 67.95302 -y 391.2349 -z 4
n -t 0.0 -s 190 -S UP -v circle -c blue -x 64.65894 -y 386.70438 -z 4
n -t 0.0 -s 191 -S UP -v circle -c blue -x 248.39342 -y 494.43704 -z 4
n -t 0.0 -s 192 -S UP -v circle -c blue -x 312.68237 -y 150.77844 -z 4
n -t 0.0 -s 193 -S UP -v circle -c blue -x 381.34424 -y 250.49469 -z 4
n -t 0.0 -s 194 -S UP -v circle -c blue -x 70.79559 -y 0.13169646 -z 4
n -t 0.0 -s 195 -S UP -v circle -c blue -x 416.13824 -y 464.69223 -z 4
n -t 0.0 -s 196 -S UP -v circle -c blue -x 173.45595 -y 314.82632 -z 4
n -t 0.0 -s 197 -S UP -v circle -c blue -x 340.92902 -y 447.0898 -z 4
n -t 0.0 -s 198 -S UP -v circle -c blue -x 4.9678683 -y 486.27917 -z 4
n -t 0.0 -s 199 -S UP -v circle -c blue -x 154.74542 -y 147.12105 -z 4
n -t 0.0 -s 200 -S UP -v circle -c blue -x 328.14026 -y 421.86957 -z 4
n -t 0.0 -s 201 -S UP -v circle -c blue -x 461.80643 -y 46.527596 -z 4
n -t 0.0 -s 202 -S UP -v circle -c blue -x 76.469246 -y 448.90558 -z 4
n -t 0.0 -s 203 -S UP -v circle -c blue -x 241.9478 -y 334.01697 -z 4
n -t 0.0 -s 204 -S UP -v circle -c blue -x 374.2472 -y 487.20795 -z 4
n -t 0.0 -s 205 -S UP -v circle -c blue -x 456.8564 -y 46.10139 -z 4
n -t 0.0 -s 206 -S UP -v circle -c blue -x 93.24297 -y 314.0898 -z 4
n -t 0.0 -s 207 -S UP -v circle -c blue -x 346.0 -y 102.7509 -z 4
n -t 0.0 -s 208 -S UP -v circle -c blue -x 367.9043 -y 55.827827 -z 4
n -t 0.0 -s 209 -S UP -v circle -c blue -x 164.4046 -y 357.53427 -z 4
n -t 0.0 -s 210 -S UP -v circle -c blue -x 363.34268 -y 159.45923 -z 4
n -t 0.0 -s 211 -S UP -v circle -c blue -x 387.1783 -y 244.5397 -z 4
n -t 0.0 -s 212 -S UP -v circle -c blue -x 28.800428 -y 254.94504 -z 4
n -t 0.0 -s 213 -S UP -v circle -c blue -x 403.0011 -y 249.2061 -z 4
n -t 0.0 -s 214 -S UP -v circle -c blue -x 123.1893 -y 135.90228 -z 4
n -t 0.0 -s 215 -S UP -v circle -c blue -x 95.491615 -y 378.83505 -z 4
n -t 0.0 -s 216 -S UP -v circle -c blue -x 385.12836 -y 216.15445 -z 4
n -t 0.0 -s 217 -S UP -v circle -c blue -x 51.884026 -y 18.518507 -z 4
n -t 0.0 -s 218 -S UP -v circle -c blue -x 246.39433 -y 56.63964 -z 4
n -t 0.0 -s 219 -S UP -v circle -c blue -x 81.97129 -y 447.95758 -z 4
n -t 0.0 -s 220 -S UP -v circle -c blue -x 480.702 -y 473.55475 -z 4
n -t 0.0 -s 221 -S UP -v circle -c blue -x 95.63604 -y 368.56345 -z 4
n -t 0.0 -s 222 -S UP -v circle -c blue -x 407.32733 -y 303.23636 -z 4
n -t 0.0 -s 223 -S UP -v circle -c blue -x 298.03638 -y 263.6536 -z 4
n -t 0.0 -s 224 -S UP -v circle -c blue -x 366.52243 -y 104.862686 -z 4
n -t 0.0 -s 225 -S UP -v circle -c blue -x 170.86176 -y 338.75146 -z 4
n -t 0.0 -s 226 -S UP -v circle -c blue -x 278.39285 -y 69.71881 -z 4
n -t 0.0 -s 227 -S UP -v circle -c blue -x 423.93457 -y 176.17654 -z 4
n -t 0.0 -s 228 -S UP -v circle -c blue -x 433.54074 -y 90.04915 -z 4
n -t 0.0 -s 229 -S UP -v circle -c blue -x 311.40317 -y 186.41788 -z 4
n -t 0.0 -s 230 -S UP -v circle -c blue -x 229.1408 -y 134.41705 -z 4
n -t 0.0 -s 231 -S UP -v circle -c blue -x 3.1381845 -y 257.29614 -z 4
n -t 0.0 -s 232 -S UP -v circle -c blue -x 212.2122 -y 116.425064 -z 4
n -t 0.0 -s 233 -S UP -v circle -c blue -x 106.6778 -y 335.66324 -z 4
n -t 0.0 -s 234 -S UP -v circle -c blue -x 368.86942 -y 314.4861 -z 4
n -t 0.0 -s 235 -S UP -v circle -c blue -x 24.828255 -y 131.3147 -z 4
n -t 0.0 -s 236 -S UP -v circle -c blue -x 67.66016 -y 360.37442 -z 4
n -t 0.0 -s 237 -S UP -v circle -c blue -x 365.16537 -y 400.79822 -z 4
n -t 0.0 -s 238 -S UP -v circle -c blue -x 132.29149 -y 20.266056 -z 4
n -t 0.0 -s 239 -S UP -v circle -c blue -x 151.22888 -y 252.72003 -z 4
n -t 0.0 -s 240 -S UP -v circle -c blue -x 256.86435 -y 124.0755 -z 4
n -t 0.0 -s 241 -S UP -v circle -c blue -x 111.88498 -y 354.75186 -z 4
n -t 0.0 -s 242 -S UP -v circle -c blue -x 450.11758 -y 385.72253 -z 4
n -t 0.0 -s 243 -S UP -v circle -c blue -x 390.55777 -y 15.530527 -z 4
n -t 0.0 -s 244 -S UP -v circle -c blue -x 86.262344 -y 100.572136 -z 4
n -t 0.0 -s 245 -S UP -v circle -c blue -x 344.89624 -y 147.66324 -z 4
n -t 0.0 -s 246 -S UP -v circle -c blue -x 373.07224 -y 307.1676 -z 4
n -t 0.0 -s 247 -S UP -v circle -c blue -x 229.7382 -y 87.68895 -z 4
n -t 0.0 -s 248 -S UP -v circle -c blue -x 414.49945 -y 482.45047 -z 4
n -t 0.0 -s 249 -S UP -v circle -c blue -x 431.42484 -y 487.61832 -z 4
n -t 0.0 -s 250 -S UP -v circle -c blue -x 328.8926 -y 375.2913 -z 4
n -t 0.0 -s 251 -S UP -v circle -c blue -x 63.77053 -y 294.03653 -z 4
n -t 0.0 -s 252 -S UP -v circle -c blue -x 485.7856 -y 118.14636 -z 4
n -t 0.0 -s 253 -S UP -v circle -c blue -x 339.15347 -y 74.103294 -z 4
n -t 0.0 -s 254 -S UP -v circle -c blue -x 487.27045 -y 135.24255 -z 4
n -t 0.0 -s 255 -S UP -v circle -c blue -x 190.79158 -y 223.45102 -z 4
n -t 0.0 -s 256 -S UP -v circle -c blue -x 54.415016 -y 455.55368 -z 4
n -t 0.0 -s 257 -S UP -v circle -c blue -x 72.535934 -y 325.23718 -z 4
n -t 0.0 -s 258 -S UP -v circle -c blue -x 487.48227 -y 356.07947 -z 4
n -t 0.0 -s 259 -S UP -v circle -c blue -x 183.35333 -y 9.656609 -z 4
n -t 0.0 -s 260 -S UP -v circle -c blue -x 470.47772 -y 95.12204 -z 4
n -t 0.0 -s 261 -S UP -v circle -c blue -x 217.68398 -y 62.20743 -z 4
n -t 0.0 -s 262 -S UP -v circle -c blue -x 47.61401 -y 34.365982 -z 4
n -t 0.0 -s 263 -S UP -v circle -c blue -x 97.33128 -y 431.01562 -z 4
n -t 0.0 -s 264 -S UP -v circle -c blue -x 340.6392 -y 404.02875 -z 4
n -t 0.0 -s 265 -S UP -v circle -c blue -x 392.44193 -y 208.57214 -z 4
n -t 0.0 -s 266 -S UP -v circle -c blue -x 222.82059 -y 197.02477 -z 4
n -t 0.0 -s 267 -S UP -v circle -c blue -x 240.12718 -y 92.287186 -z 4
n -t 0.0 -s 268 -S UP -v circle -c blue -x 56.08651 -y 319.27783 -z 4
n -t 0.0 -s 269 -S UP -v circle -c blue -x 150.70662 -y 328.2048 -z 4
n -t 0.0 -s 270 -S UP -v circle -c blue -x 312.97122 -y 205.76183 -z 4
n -t 0.0 -s 271 -S UP -v circle -c blue -x 89.45909 -y 490.8886 -z 4
n -t 0.0 -s 272 -S UP -v circle -c blue -x 392.33868 -y 190.72389 -z 4
n -t 0.0 -s 273 -S UP -v circle -c blue -x 1.8658042 -y 263.64603 -z 4
n -t 0.0 -s 274 -S UP -v circle -c blue -x 137.317 -y 199.46188 -z 4
n -t 0.0 -s 275 -S UP -v circle -c blue -x 433.03656 -y 231.62141 -z 4
n -t 0.0 -s 276 -S UP -v circle -c blue -x 32.589703 -y 285.03888 -z 4
n -t 0.0 -s 277 -S UP -v circle -c blue -x 177.41982 -y 246.49048 -z 4
n -t 0.0 -s 278 -S UP -v circle -c blue -x 95.476715 -y 41.909397 -z 4
n -t 0.0 -s 279 -S UP -v circle -c blue -x 387.79645 -y 37.125023 -z 4
n -t 0.0 -s 280 -S UP -v circle -c blue -x 247.60143 -y 388.53323 -z 4
n -t 0.0 -s 281 -S UP -v circle -c blue -x 107.41776 -y 133.17442 -z 4
n -t 0.0 -s 282 -S UP -v circle -c blue -x 120.07221 -y 170.02275 -z 4
n -t 0.0 -s 283 -S UP -v circle -c blue -x 155.13 -y 6.495386 -z 4
n -t 0.0 -s 284 -S UP -v circle -c blue -x 80.886215 -y 310.51303 -z 4
n -t 0.0 -s 285 -S UP -v circle -c blue -x 259.281 -y 373.14423 -z 4
n -t 0.0 -s 286 -S UP -v circle -c blue -x 296.7554 -y 62.496098 -z 4
n -t 0.0 -s 287 -S UP -v circle -c blue -x 175.65956 -y 301.55902 -z 4
n -t 0.0 -s 288 -S UP -v circle -c blue -x 238.01634 -y 499.49936 -z 4
n -t 0.0 -s 289 -S UP -v circle -c blue -x 40.902855 -y 441.87238 -z 4
n -t 0.0 -s 290 -S UP -v circle -c blue -x 82.15296 -y 170.32513 -z 4
n -t 0.0 -s 291 -S UP -v circle -c blue -x 263.6286 -y 89.21626 -z 4
n -t 0.0 -s 292 -S UP -v circle -c blue -x 463.37015 -y 442.15533 -z 4
n -t 0.0 -s 293 -S UP -v circle -c blue -x 378.6047 -y 268.5527 -z 4
n -t 0.0 -s 294 -S UP -v circle -c blue -x 189.41617 -y 69.150505 -z 4
n -t 0.0 -s 295 -S UP -v circle -c blue -x 326.8458 -y 139.07 -z 4
n -t 0.0 -s 296 -S UP -v circle -c blue -x 6.472498 -y 19.160955 -z 4
n -t 0.0 -s 297 -S UP -v circle -c blue -x 348.59604 -y 157.54378 -z 4
n -t 0.0 -s 298 -S UP -v circle -c blue -x 334.59766 -y 308.68405 -z 4
n -t 0.0 -s 299 -S UP -v circle -c blue -x 413.37982 -y 468.23138 -z 4
n -t 0.0 -s 300 -S UP -v circle -c blue -x 333.31003 -y 43.545277 -z 4
n -t 0.0 -s 1 -S UP -v circle -c red -x 397.6015 -y 195.02615 -z 4
n -t 0.0 -s 300 -S UP -v circle -c blue -x 333.31003 -y 43.545277 -z 4
n -t 0.0 -s 3 -S UP -v circle -c red -x 263.2389 -y 197.66623 -z 4
n -t 0.0 -s 7 -S UP -v circle -c red -x 475.25 -y 241.99545 -z 4
n -t 0.0 -s 299 -S UP -v circle -c blue -x 413.37982 -y 468.23138 -z 4
n -t 0.0 -s 15 -S UP -v circle -c blue -x 462.94757 -y 82.792404 -z 4
n -t 0.0 -s 31 -S UP -v circle -c blue -x 440.56738 -y 169.10556 -z 4
n -t 0.0 -s 63 -S UP -v circle -c blue -x 232.34596 -y 83.609344 -z 4
n -t 0.0 -s 127 -S UP -v circle -c blue -x 476.8012 -y 272.0982 -z 4
n -t 0.0 -s 255 -S UP -v circle -c blue -x 190.79158 -y 223.45102 -z 4
n -t 0.0 -s 256 -S UP -v circle -c blue -x 54.415016 -y 455.55368 -z 4
n -t 0.0 -s 128 -S UP -v circle -c blue -x 25.801659 -y 469.099 -z 4
n -t 0.0 -s 257 -S UP -v circle -c blue -x 72.535934 -y 325.23718 -z 4
n -t 0.0 -s 258 -S UP -v circle -c blue -x 487.48227 -y 356.07947 -z 4
n -t 0.0 -s 64 -S UP -v circle -c blue -x 65.30106 -y 34.867107 -z 4
n -t 0.0 -s 129 -S UP -v circle -c blue -x 283.29852 -y 407.0661 -z 4
n -t 0.0 -s 259 -S UP -v circle -c blue -x 183.35333 -y 9.656609 -z 4
n -t 0.0 -s 260 -S UP -v circle -c blue -x 470.47772 -y 95.12204 -z 4
n -t 0.0 -s 130 -S UP -v circle -c blue -x 248.35652 -y 401.92743 -z 4
n -t 0.0 -s 261 -S UP -v circle -c blue -x 217.68398 -y 62.20743 -z 4
n -t 0.0 -s 262 -S UP -v circle -c blue -x 47.61401 -y 34.365982 -z 4
n -t 0.0 -s 32 -S UP -v circle -c blue -x 296.16946 -y 260.90714 -z 4
n -t 0.0 -s 65 -S UP -v circle -c blue -x 366.7882 -y 472.46246 -z 4
n -t 0.0 -s 131 -S UP -v circle -c blue -x 463.05762 -y 282.11224 -z 4
n -t 0.0 -s 263 -S UP -v circle -c blue -x 97.33128 -y 431.01562 -z 4
n -t 0.0 -s 264 -S UP -v circle -c blue -x 340.6392 -y 404.02875 -z 4
n -t 0.0 -s 132 -S UP -v circle -c blue -x 476.14188 -y 195.48642 -z 4
n -t 0.0 -s 265 -S UP -v circle -c blue -x 392.44193 -y 208.57214 -z 4
n -t 0.0 -s 266 -S UP -v circle -c blue -x 222.82059 -y 197.02477 -z 4
n -t 0.0 -s 66 -S UP -v circle -c blue -x 327.83047 -y 233.07404 -z 4
n -t 0.0 -s 133 -S UP -v circle -c blue -x 365.6178 -y 275.37064 -z 4
n -t 0.0 -s 267 -S UP -v circle -c blue -x 240.12718 -y 92.287186 -z 4
n -t 0.0 -s 268 -S UP -v circle -c blue -x 56.08651 -y 319.27783 -z 4
n -t 0.0 -s 134 -S UP -v circle -c blue -x 126.8405 -y 168.49017 -z 4
n -t 0.0 -s 269 -S UP -v circle -c blue -x 150.70662 -y 328.2048 -z 4
n -t 0.0 -s 270 -S UP -v circle -c blue -x 312.97122 -y 205.76183 -z 4
n -t 0.0 -s 16 -S UP -v circle -c blue -x 208.2457 -y 175.79642 -z 4
n -t 0.0 -s 33 -S UP -v circle -c blue -x 181.70529 -y 271.21298 -z 4
n -t 0.0 -s 67 -S UP -v circle -c blue -x 435.7124 -y 111.37343 -z 4
n -t 0.0 -s 135 -S UP -v circle -c blue -x 45.28308 -y 139.58585 -z 4
n -t 0.0 -s 271 -S UP -v circle -c blue -x 89.45909 -y 490.8886 -z 4
n -t 0.0 -s 272 -S UP -v circle -c blue -x 392.33868 -y 190.72389 -z 4
n -t 0.0 -s 136 -S UP -v circle -c blue -x 440.59088 -y 196.72993 -z 4
n -t 0.0 -s 273 -S UP -v circle -c blue -x 1.8658042 -y 263.64603 -z 4
n -t 0.0 -s 274 -S UP -v circle -c blue -x 137.317 -y 199.46188 -z 4
n -t 0.0 -s 68 -S UP -v circle -c blue -x 490.5175 -y 485.94858 -z 4
n -t 0.0 -s 137 -S UP -v circle -c blue -x 8.142054 -y 370.08804 -z 4
n -t 0.0 -s 275 -S UP -v circle -c blue -x 433.03656 -y 231.62141 -z 4
n -t 0.0 -s 276 -S UP -v circle -c blue -x 32.589703 -y 285.03888 -z 4
n -t 0.0 -s 138 -S UP -v circle -c blue -x 284.77856 -y 429.94193 -z 4
n -t 0.0 -s 277 -S UP -v circle -c blue -x 177.41982 -y 246.49048 -z 4
n -t 0.0 -s 278 -S UP -v circle -c blue -x 95.476715 -y 41.909397 -z 4
n -t 0.0 -s 34 -S UP -v circle -c blue -x 377.47818 -y 141.58502 -z 4
n -t 0.0 -s 69 -S UP -v circle -c blue -x 5.5574775 -y 489.81778 -z 4
n -t 0.0 -s 139 -S UP -v circle -c blue -x 323.43588 -y 221.84988 -z 4
n -t 0.0 -s 279 -S UP -v circle -c blue -x 387.79645 -y 37.125023 -z 4
n -t 0.0 -s 280 -S UP -v circle -c blue -x 247.60143 -y 388.53323 -z 4
n -t 0.0 -s 140 -S UP -v circle -c blue -x 283.1621 -y 338.59238 -z 4
n -t 0.0 -s 281 -S UP -v circle -c blue -x 107.41776 -y 133.17442 -z 4
n -t 0.0 -s 282 -S UP -v circle -c blue -x 120.07221 -y 170.02275 -z 4
n -t 0.0 -s 70 -S UP -v circle -c blue -x 182.81708 -y 438.7769 -z 4
n -t 0.0 -s 141 -S UP -v circle -c blue -x 497.43408 -y 333.94876 -z 4
n -t 0.0 -s 283 -S UP -v circle -c blue -x 155.13 -y 6.495386 -z 4
n -t 0.0 -s 284 -S UP -v circle -c blue -x 80.886215 -y 310.51303 -z 4
n -t 0.0 -s 142 -S UP -v circle -c blue -x 283.7288 -y 372.30252 -z 4
n -t 0.0 -s 285 -S UP -v circle -c blue -x 259.281 -y 373.14423 -z 4
n -t 0.0 -s 286 -S UP -v circle -c blue -x 296.7554 -y 62.496098 -z 4
n -t 0.0 -s 8 -S UP -v circle -c red -x 238.32193 -y 413.24704 -z 4
n -t 0.0 -s 17 -S UP -v circle -c blue -x 450.4767 -y 31.160772 -z 4
n -t 0.0 -s 35 -S UP -v circle -c blue -x 268.88266 -y 437.12814 -z 4
n -t 0.0 -s 71 -S UP -v circle -c blue -x 268.20044 -y 453.89154 -z 4
n -t 0.0 -s 143 -S UP -v circle -c blue -x 398.46036 -y 59.43966 -z 4
n -t 0.0 -s 287 -S UP -v circle -c blue -x 175.65956 -y 301.55902 -z 4
n -t 0.0 -s 288 -S UP -v circle -c blue -x 238.01634 -y 499.49936 -z 4
n -t 0.0 -s 144 -S UP -v circle -c blue -x 418.957 -y 53.40305 -z 4
n -t 0.0 -s 289 -S UP -v circle -c blue -x 40.902855 -y 441.87238 -z 4
n -t 0.0 -s 290 -S UP -v circle -c blue -x 82.15296 -y 170.32513 -z 4
n -t 0.0 -s 72 -S UP -v circle -c blue -x 228.72997 -y 310.75195 -z 4
n -t 0.0 -s 145 -S UP -v circle -c blue -x 38.137318 -y 169.56758 -z 4
n -t 0.0 -s 291 -S UP -v circle -c blue -x 263.6286 -y 89.21626 -z 4
n -t 0.0 -s 292 -S UP -v circle -c blue -x 463.37015 -y 442.15533 -z 4
n -t 0.0 -s 146 -S UP -v circle -c blue -x 57.323067 -y 289.66345 -z 4
n -t 0.0 -s 293 -S UP -v circle -c blue -x 378.6047 -y 268.5527 -z 4
n -t 0.0 -s 294 -S UP -v circle -c blue -x 189.41617 -y 69.150505 -z 4
n -t 0.0 -s 36 -S UP -v circle -c blue -x 184.04922 -y 154.7826 -z 4
n -t 0.0 -s 73 -S UP -v circle -c blue -x 107.551186 -y 50.669403 -z 4
n -t 0.0 -s 147 -S UP -v circle -c blue -x 76.70534 -y 178.12506 -z 4
n -t 0.0 -s 295 -S UP -v circle -c blue -x 326.8458 -y 139.07 -z 4
n -t 0.0 -s 296 -S UP -v circle -c blue -x 6.472498 -y 19.160955 -z 4
n -t 0.0 -s 148 -S UP -v circle -c blue -x 353.05676 -y 46.645493 -z 4
n -t 0.0 -s 297 -S UP -v circle -c blue -x 348.59604 -y 157.54378 -z 4
n -t 0.0 -s 298 -S UP -v circle -c blue -x 334.59766 -y 308.68405 -z 4
n -t 0.0 -s 74 -S UP -v circle -c blue -x 46.111496 -y 165.34454 -z 4
n -t 0.0 -s 149 -S UP -v circle -c blue -x 129.50653 -y 275.23047 -z 4
n -t 0.0 -s 150 -S UP -v circle -c blue -x 171.6398 -y 147.86055 -z 4
n -t 0.0 -s 18 -S UP -v circle -c blue -x 335.66916 -y 135.79369 -z 4
n -t 0.0 -s 37 -S UP -v circle -c blue -x 402.01443 -y 213.49803 -z 4
n -t 0.0 -s 75 -S UP -v circle -c blue -x 228.49745 -y 453.45663 -z 4
n -t 0.0 -s 151 -S UP -v circle -c blue -x 212.20367 -y 141.45314 -z 4
n -t 0.0 -s 152 -S UP -v circle -c blue -x 67.85873 -y 268.90424 -z 4
n -t 0.0 -s 76 -S UP -v circle -c blue -x 398.36465 -y 120.717255 -z 4
n -t 0.0 -s 153 -S UP -v circle -c blue -x 308.49146 -y 440.55457 -z 4
n -t 0.0 -s 154 -S UP -v circle -c blue -x 380.05786 -y 207.35106 -z 4
n -t 0.0 -s 38 -S UP -v circle -c blue -x 369.9126 -y 268.12286 -z 4
n -t 0.0 -s 77 -S UP -v circle -c blue -x 453.57382 -y 293.87375 -z 4
n -t 0.0 -s 155 -S UP -v circle -c blue -x 465.11893 -y 230.61674 -z 4
n -t 0.0 -s 156 -S UP -v circle -c blue -x 154.47151 -y 64.22618 -z 4
n -t 0.0 -s 78 -S UP -v circle -c blue -x 437.4115 -y 83.60258 -z 4
n -t 0.0 -s 157 -S UP -v circle -c blue -x 83.82091 -y 143.37653 -z 4
n -t 0.0 -s 158 -S UP -v circle -c blue -x 45.20908 -y 284.56488 -z 4
n -t 0.0 -s 4 -S UP -v circle -c red -x 168.3169 -y 77.42372 -z 4
n -t 0.0 -s 9 -S UP -v circle -c blue -x 433.45667 -y 302.00327 -z 4
n -t 0.0 -s 19 -S UP -v circle -c blue -x 317.30334 -y 184.42085 -z 4
n -t 0.0 -s 39 -S UP -v circle -c blue -x 3.8361251 -y 192.84782 -z 4
n -t 0.0 -s 79 -S UP -v circle -c blue -x 379.50015 -y 261.90125 -z 4
n -t 0.0 -s 159 -S UP -v circle -c blue -x 61.792583 -y 425.51242 -z 4
n -t 0.0 -s 160 -S UP -v circle -c blue -x 433.88177 -y 316.59805 -z 4
n -t 0.0 -s 80 -S UP -v circle -c blue -x 342.09662 -y 363.27466 -z 4
n -t 0.0 -s 161 -S UP -v circle -c blue -x 434.8511 -y 114.71161 -z 4
n -t 0.0 -s 162 -S UP -v circle -c blue -x 155.43079 -y 352.58112 -z 4
n -t 0.0 -s 40 -S UP -v circle -c blue -x 16.227663 -y 32.453835 -z 4
n -t 0.0 -s 81 -S UP -v circle -c blue -x 220.3264 -y 285.81885 -z 4
n -t 0.0 -s 163 -S UP -v circle -c blue -x 58.33003 -y 499.77887 -z 4
n -t 0.0 -s 164 -S UP -v circle -c blue -x 398.07733 -y 373.76065 -z 4
n -t 0.0 -s 82 -S UP -v circle -c blue -x 74.18773 -y 323.62494 -z 4