# Trace file generated by Jist/Swans Version 1.0.6. at Fri May 31 10:14:09 BRT 2013
V -t * -v 1.0a5 -a 0
W -t * -x 410 -y 410
A -t * -n 1 -p 0 -o 0xffffffff -c 31 -a 1
A -t * -h 1 -m 2147483647 -s 0
n -t 0.0 -s 1 -S UP -v circle -c red -x 5.223542 -y 256.0057 -z 4
n -t 0.0 -s 2 -S UP -v circle -c red -x 495.0598 -y 159.812 -z 4
n -t 0.0 -s 3 -S UP -v circle -c red -x 71.37424 -y 174.4917 -z 4
n -t 0.0 -s 4 -S UP -v circle -c red -x 165.13857 -y 365.71585 -z 4
n -t 0.0 -s 5 -S UP -v circle -c red -x 440.925 -y 434.05252 -z 4
n -t 0.0 -s 6 -S UP -v circle -c red -x 289.42148 -y 308.70078 -z 4
n -t 0.0 -s 7 -S UP -v circle -c red -x 12.233316 -y 309.5892 -z 4
n -t 0.0 -s 8 -S UP -v circle -c red -x 245.87715 -y 438.53296 -z 4
n -t 0.0 -s 9 -S UP -v circle -c blue -x 334.29208 -y 160.68 -z 4
n -t 0.0 -s 10 -S UP -v circle -c blue -x 167.03087 -y 469.24704 -z 4
n -t 0.0 -s 11 -S UP -v circle -c blue -x 263.24118 -y 161.6607 -z 4
n -t 0.0 -s 12 -S UP -v circle -c blue -x 397.55142 -y 363.24338 -z 4
n -t 0.0 -s 13 -S UP -v circle -c blue -x 486.68973 -y 107.74103 -z 4
n -t 0.0 -s 14 -S UP -v circle -c blue -x 34.71175 -y 322.94608 -z 4
n -t 0.0 -s 15 -S UP -v circle -c blue -x 146.34433 -y 45.772163 -z 4
n -t 0.0 -s 16 -S UP -v circle -c blue -x 63.008247 -y 273.0983 -z 4
n -t 0.0 -s 17 -S UP -v circle -c blue -x 106.65664 -y 284.41385 -z 4
n -t 0.0 -s 18 -S UP -v circle -c blue -x 361.98703 -y 396.5072 -z 4
n -t 0.0 -s 19 -S UP -v circle -c blue -x 124.89155 -y 221.69716 -z 4
n -t 0.0 -s 20 -S UP -v circle -c blue -x 338.2818 -y 13.462246 -z 4
n -t 0.0 -s 21 -S UP -v circle -c blue -x 393.8561 -y 465.0075 -z 4
n -t 0.0 -s 22 -S UP -v circle -c blue -x 285.28714 -y 433.51614 -z 4
n -t 0.0 -s 23 -S UP -v circle -c blue -x 418.6269 -y 165.66458 -z 4
n -t 0.0 -s 24 -S UP -v circle -c blue -x 443.97827 -y 63.401283 -z 4
n -t 0.0 -s 25 -S UP -v circle -c blue -x 492.5263 -y 408.59082 -z 4
n -t 0.0 -s 26 -S UP -v circle -c blue -x 349.29358 -y 99.313286 -z 4
n -t 0.0 -s 27 -S UP -v circle -c blue -x 93.308 -y 377.757 -z 4
n -t 0.0 -s 28 -S UP -v circle -c blue -x 332.29248 -y 130.56764 -z 4
n -t 0.0 -s 29 -S UP -v circle -c blue -x 289.45206 -y 405.5847 -z 4
n -t 0.0 -s 30 -S UP -v circle -c blue -x 279.01782 -y 116.85118 -z 4
n -t 0.0 -s 31 -S UP -v circle -c blue -x 338.49612 -y 134.36842 -z 4
n -t 0.0 -s 32 -S UP -v circle -c blue -x 153.5795 -y 397.27084 -z 4
n -t 0.0 -s 33 -S UP -v circle -c blue -x 457.74808 -y 399.8387 -z 4
n -t 0.0 -s 34 -S UP -v circle -c blue -x 192.32938 -y 437.64212 -z 4
n -t 0.0 -s 35 -S UP -v circle -c blue -x 34.272015 -y 50.696342 -z 4
n -t 0.0 -s 36 -S UP -v circle -c blue -x 95.95436 -y 206.66035 -z 4
n -t 0.0 -s 37 -S UP -v circle -c blue -x 120.890114 -y 257.46497 -z 4
n -t 0.0 -s 38 -S UP -v circle -c blue -x 350.63516 -y 292.62906 -z 4
n -t 0.0 -s 39 -S UP -v circle -c blue -x 391.7131 -y 133.18428 -z 4
n -t 0.0 -s 40 -S UP -v circle -c blue -x 322.8194 -y 273.35538 -z 4
n -t 0.0 -s 41 -S UP -v circle -c blue -x 31.447708 -y 185.83244 -z 4
n -t 0.0 -s 42 -S UP -v circle -c blue -x 405.27576 -y 442.91083 -z 4
n -t 0.0 -s 43 -S UP -v circle -c blue -x 432.925 -y 176.148 -z 4
n -t 0.0 -s 44 -S UP -v circle -c blue -x 366.51932 -y 282.6418 -z 4
n -t 0.0 -s 45 -S UP -v circle -c blue -x 225.8695 -y 347.62817 -z 4
n -t 0.0 -s 46 -S UP -v circle -c blue -x 128.94124 -y 159.72537 -z 4
n -t 0.0 -s 47 -S UP -v circle -c blue -x 354.25223 -y 390.50912 -z 4
n -t 0.0 -s 48 -S UP -v circle -c blue -x 391.49954 -y 6.5177083 -z 4
n -t 0.0 -s 49 -S UP -v circle -c blue -x 230.43886 -y 365.77097 -z 4
n -t 0.0 -s 50 -S UP -v circle -c blue -x 325.0246 -y 406.9427 -z 4
n -t 0.0 -s 51 -S UP -v circle -c blue -x 391.00003 -y 45.627296 -z 4
n -t 0.0 -s 52 -S UP -v circle -c blue -x 217.39494 -y 313.40213 -z 4
n -t 0.0 -s 53 -S UP -v circle -c blue -x 54.163994 -y 175.21698 -z 4
n -t 0.0 -s 54 -S UP -v circle -c blue -x 483.31696 -y 377.54074 -z 4
n -t 0.0 -s 55 -S UP -v circle -c blue -x 173.58136 -y 157.66216 -z 4
n -t 0.0 -s 56 -S UP -v circle -c blue -x 391.40097 -y 181.23424 -z 4
n -t 0.0 -s 57 -S UP -v circle -c blue -x 411.88577 -y 47.325344 -z 4
n -t 0.0 -s 58 -S UP -v circle -c blue -x 297.81363 -y 448.13666 -z 4
n -t 0.0 -s 59 -S UP -v circle -c blue -x 233.45953 -y 369.7145 -z 4
n -t 0.0 -s 60 -S UP -v circle -c blue -x 420.08054 -y 40.973186 -z 4
n -t 0.0 -s 61 -S UP -v circle -c blue -x 375.2802 -y 91.456566 -z 4
n -t 0.0 -s 62 -S UP -v circle -c blue -x 381.6374 -y 262.61737 -z 4
n -t 0.0 -s 63 -S UP -v circle -c blue -x 282.59024 -y 140.18538 -z 4
n -t 0.0 -s 64 -S UP -v circle -c blue -x 13.435751 -y 479.17017 -z 4
n -t 0.0 -s 65 -S UP -v circle -c blue -x 450.70343 -y 126.85427 -z 4
n -t 0.0 -s 66 -S UP -v circle -c blue -x 405.1991 -y 37.261517 -z 4
n -t 0.0 -s 67 -S UP -v circle -c blue -x 152.27243 -y 186.36041 -z 4
n -t 0.0 -s 68 -S UP -v circle -c blue -x 358.624 -y 14.319092 -z 4
n -t 0.0 -s 69 -S UP -v circle -c blue -x 430.97058 -y 15.615643 -z 4
n -t 0.0 -s 70 -S UP -v circle -c blue -x 446.70404 -y 295.46707 -z 4
n -t 0.0 -s 71 -S UP -v circle -c blue -x 336.40036 -y 320.16602 -z 4
n -t 0.0 -s 72 -S UP -v circle -c blue -x 27.124046 -y 332.10263 -z 4
n -t 0.0 -s 73 -S UP -v circle -c blue -x 263.17953 -y 354.6847 -z 4
n -t 0.0 -s 74 -S UP -v circle -c blue -x 78.97508 -y 90.29776 -z 4
n -t 0.0 -s 75 -S UP -v circle -c blue -x 440.06592 -y 362.36227 -z 4
n -t 0.0 -s 76 -S UP -v circle -c blue -x 127.45875 -y 19.43496 -z 4
n -t 0.0 -s 77 -S UP -v circle -c blue -x 116.58567 -y 341.30554 -z 4
n -t 0.0 -s 78 -S UP -v circle -c blue -x 123.30329 -y 357.53198 -z 4
n -t 0.0 -s 79 -S UP -v circle -c blue -x 487.292 -y 230.12746 -z 4
n -t 0.0 -s 80 -S UP -v circle -c blue -x 245.75584 -y 476.36356 -z 4
n -t 0.0 -s 81 -S UP -v circle -c blue -x 323.3028 -y 152.25366 -z 4
n -t 0.0 -s 82 -S UP -v circle -c blue -x 79.648346 -y 360.7481 -z 4
n -t 0.0 -s 83 -S UP -v circle -c blue -x 491.38577 -y 61.056435 -z 4
n -t 0.0 -s 84 -S UP -v circle -c blue -x 68.48037 -y 308.42673 -z 4
n -t 0.0 -s 85 -S UP -v circle -c blue -x 400.24966 -y 312.4143 -z 4
n -t 0.0 -s 86 -S UP -v circle -c blue -x 493.00055 -y 243.20042 -z 4
n -t 0.0 -s 87 -S UP -v circle -c blue -x 437.98132 -y 364.03574 -z 4
n -t 0.0 -s 88 -S UP -v circle -c blue -x 355.597 -y 109.974236 -z 4
n -t 0.0 -s 89 -S UP -v circle -c blue -x 443.28204 -y 272.909 -z 4
n -t 0.0 -s 90 -S UP -v circle -c blue -x 438.079 -y 488.83902 -z 4
n -t 0.0 -s 91 -S UP -v circle -c blue -x 374.29947 -y 174.27534 -z 4
n -t 0.0 -s 92 -S UP -v circle -c blue -x 128.22176 -y 141.24342 -z 4
n -t 0.0 -s 93 -S UP -v circle -c blue -x 313.84375 -y 272.97275 -z 4
n -t 0.0 -s 94 -S UP -v circle -c blue -x 398.7791 -y 116.79953 -z 4
n -t 0.0 -s 95 -S UP -v circle -c blue -x 138.48343 -y 35.968243 -z 4
n -t 0.0 -s 96 -S UP -v circle -c blue -x 52.49864 -y 478.64328 -z 4
n -t 0.0 -s 97 -S UP -v circle -c blue -x 214.74019 -y 23.164867 -z 4
n -t 0.0 -s 98 -S UP -v circle -c blue -x 84.89529 -y 190.03496 -z 4
n -t 0.0 -s 99 -S UP -v circle -c blue -x 400.07718 -y 341.61496 -z 4
n -t 0.0 -s 100 -S UP -v circle -c blue -x 40.986748 -y 278.73398 -z 4
n -t 0.0 -s 1 -S UP -v circle -c red -x 5.223542 -y 256.0057 -z 4
n -t 0.0 -s 3 -S UP -v circle -c red -x 71.37424 -y 174.4917 -z 4
n -t 0.0 -s 7 -S UP -v circle -c red -x 12.233316 -y 309.5892 -z 4
n -t 0.0 -s 15 -S UP -v circle -c blue -x 146.34433 -y 45.772163 -z 4
n -t 0.0 -s 31 -S UP -v circle -c blue -x 338.49612 -y 134.36842 -z 4
n -t 0.0 -s 63 -S UP -v circle -c blue -x 282.59024 -y 140.18538 -z 4
n -t 0.0 -s 64 -S UP -v circle -c blue -x 13.435751 -y 479.17017 -z 4
n -t 0.0 -s 32 -S UP -v circle -c blue -x 153.5795 -y 397.27084 -z 4
n -t 0.0 -s 65 -S UP -v circle -c blue -x 450.70343 -y 126.85427 -z 4
n -t 0.0 -s 66 -S UP -v circle -c blue -x 405.1991 -y 37.261517 -z 4
n -t 0.0 -s 16 -S UP -v circle -c blue -x 63.008247 -y 273.0983 -z 4
n -t 0.0 -s 33 -S UP -v circle -c blue -x 457.74808 -y 399.8387 -z 4
n -t 0.0 -s 67 -S UP -v circle -c blue -x 152.27243 -y 186.36041 -z 4
n -t 0.0 -s 68 -S UP -v circle -c blue -x 358.624 -y 14.319092 -z 4
n -t 0.0 -s 34 -S UP -v circle -c blue -x 192.32938 -y 437.64212 -z 4
n -t 0.0 -s 69 -S UP -v circle -c blue -x 430.97058 -y 15.615643 -z 4
n -t 0.0 -s 70 -S UP -v circle -c blue -x 446.70404 -y 295.46707 -z 4
n -t 0.0 -s 8 -S UP -v circle -c red -x 245.87715 -y 438.53296 -z 4
n -t 0.0 -s 17 -S UP -v circle -c blue -x 106.65664 -y 284.41385 -z 4
n -t 0.0 -s 35 -S UP -v circle -c blue -x 34.272015 -y 50.696342 -z 4
n -t 0.0 -s 71 -S UP -v circle -c blue -x 336.40036 -y 320.16602 -z 4
n -t 0.0 -s 72 -S UP -v circle -c blue -x 27.124046 -y 332.10263 -z 4
n -t 0.0 -s 36 -S UP -v circle -c blue -x 95.95436 -y 206.66035 -z 4
n -t 0.0 -s 73 -S UP -v circle -c blue -x 263.17953 -y 354.6847 -z 4
n -t 0.0 -s 74 -S UP -v circle -c blue -x 78.97508 -y 90.29776 -z 4
n -t 0.0 -s 18 -S UP -v circle -c blue -x 361.98703 -y 396.5072 -z 4
n -t 0.0 -s 37 -S UP -v circle -c blue -x 120.890114 -y 257.46497 -z 4
n -t 0.0 -s 75 -S UP -v circle -c blue -x 440.06592 -y 362.36227 -z 4
n -t 0.0 -s 76 -S UP -v circle -c blue -x 127.45875 -y 19.43496 -z 4
n -t 0.0 -s 38 -S UP -v circle -c blue -x 350.63516 -y 292.62906 -z 4
n -t 0.0 -s 77 -S UP -v circle -c blue -x 116.58567 -y 341.30554 -z 4
n -t 0.0 -s 78 -S UP -v circle -c blue -x 123.30329 -y 357.53198 -z 4
n -t 0.0 -s 4 -S UP -v circle -c red -x 165.13857 -y 365.71585 -z 4
n -t 0.0 -s 9 -S UP -v circle -c blue -x 334.29208 -y 160.68 -z 4
n -t 0.0 -s 19 -S UP -v circle -c blue -x 124.89155 -y 221.69716 -z 4
n -t 0.0 -s 39 -S UP -v circle -c blue -x 391.7131 -y 133.18428 -z 4
n -t 0.0 -s 79 -S UP -v circle -c blue -x 487.292 -y 230.12746 -z 4
n -t 0.0 -s 80 -S UP -v circle -c blue -x 245.75584 -y 476.36356 -z 4
n -t 0.0 -s 40 -S UP -v circle -c blue -x 322.8194 -y 273.35538 -z 4
n -t 0.0 -s 81 -S UP -v circle -c blue -x 323.3028 -y 152.25366 -z 4
n -t 0.0 -s 82 -S UP -v circle -c blue -x 79.648346 -y 360.7481 -z 4
n -t 0.0 -s 20 -S UP -v circle -c blue -x 338.2818 -y 13.462246 -z 4
n -t 0.0 -s 41 -S UP -v circle -c blue -x 31.447708 -y 185.83244 -z 4
n -t 0.0 -s 83 -S UP -v circle -c blue -x 491.38577 -y 61.056435 -z 4
n -t 0.0 -s 84 -S UP -v circle -c blue -x 68.48037 -y 308.42673 -z 4
n -t 0.0 -s 42 -S UP -v circle -c blue -x 405.27576 -y 442.91083 -z 4
n -t 0.0 -s 85 -S UP -v circle -c blue -x 400.24966 -y 312.4143 -z 4
n -t 0.0 -s 86 -S UP -v circle -c blue -x 493.00055 -y 243.20042 -z 4
n -t 0.0 -s 10 -S UP -v circle -c blue -x 167.03087 -y 469.24704 -z 4
n -t 0.0 -s 21 -S UP -v circle -c blue -x 393.8561 -y 465.0075 -z 4
n -t 0.0 -s 43 -S UP -v circle -c blue -x 432.925 -y 176.148 -z 4
n -t 0.0 -s 87 -S UP -v circle -c blue -x 437.98132 -y 364.03574 -z 4
n -t 0.0 -s 88 -S UP -v circle -c blue -x 355.597 -y 109.974236 -z 4
n -t 0.0 -s 44 -S UP -v circle -c blue -x 366.51932 -y 282.6418 -z 4
n -t 0.0 -s 89 -S UP -v circle -c blue -x 443.28204 -y 272.909 -z 4
n -t 0.0 -s 90 -S UP -v circle -c blue -x 438.079 -y 488.83902 -z 4
n -t 0.0 -s 22 -S UP -v circle -c blue -x 285.28714 -y 433.51614 -z 4
n -t 0.0 -s 45 -S UP -v circle -c blue -x 225.8695 -y 347.62817 -z 4
n -t 0.0 -s 91 -S UP -v circle -c blue -x 374.29947 -y 174.27534 -z 4
n -t 0.0 -s 92 -S UP -v circle -c blue -x 128.22176 -y 141.24342 -z 4
n -t 0.0 -s 46 -S UP -v circle -c blue -x 128.94124 -y 159.72537 -z 4
n -t 0.0 -s 93 -S UP -v circle -c blue -x 313.84375 -y 272.97275 -z 4
n -t 0.0 -s 94 -S UP -v circle -c blue -x 398.7791 -y 116.79953 -z 4
n -t 0.0 -s 2 -S UP -v circle -c red -x 495.0598 -y 159.812 -z 4
n -t 0.0 -s 5 -S UP -v circle -c red -x 440.925 -y 434.05252 -z 4
n -t 0.0 -s 11 -S UP -v circle -c blue -x 263.24118 -y 161.6607 -z 4
n -t 0.0 -s 23 -S UP -v circle -c blue -x 418.6269 -y 165.66458 -z 4
n -t 0.0 -s 47 -S UP -v circle -c blue -x 354.25223 -y 390.50912 -z 4
n -t 0.0 -s 95 -S UP -v circle -c blue -x 138.48343 -y 35.968243 -z 4
n -t 0.0 -s 96 -S UP -v circle -c blue -x 52.49864 -y 478.64328 -z 4
n -t 0.0 -s 48 -S UP -v circle -c blue -x 391.49954 -y 6.5177083 -z 4
n -t 0.0 -s 97 -S UP -v circle -c blue -x 214.74019 -y 23.164867 -z 4
n -t 0.0 -s 98 -S UP -v circle -c blue -x 84.89529 -y 190.03496 -z 4
n -t 0.0 -s 24 -S UP -v circle -c blue -x 443.97827 -y 63.401283 -z 4
n -t 0.0 -s 49 -S UP -v circle -c blue -x 230.43886 -y 365.77097 -z 4
n -t 0.0 -s 99 -S UP -v circle -c blue -x 400.07718 -y 341.61496 -z 4
n -t 0.0 -s 100 -S UP -v circle -c blue -x 40.986748 -y 278.73398 -z 4
n -t 0.0 -s 50 -S UP -v circle -c blue -x 325.0246 -y 406.9427 -z 4
n -t 0.0 -s 12 -S UP -v circle -c blue -x 397.55142 -y 363.24338 -z 4
n -t 0.0 -s 25 -S UP -v circle -c blue -x 492.5263 -y 408.59082 -z 4
n -t 0.0 -s 51 -S UP -v circle -c blue -x 391.00003 -y 45.627296 -z 4
n -t 0.0 -s 52 -S UP -v circle -c blue -x 217.39494 -y 313.40213 -z 4
n -t 0.0 -s 26 -S UP -v circle -c blue -x 349.29358 -y 99.313286 -z 4
n -t 0.0 -s 53 -S UP -v circle -c blue -x 54.163994 -y 175.21698 -z 4
n -t 0.0 -s 54 -S UP -v circle -c blue -x 483.31696 -y 377.54074 -z 4
n -t 0.0 -s 6 -S UP -v circle -c red -x 289.42148 -y 308.70078 -z 4
n -t 0.0 -s 13 -S UP -v circle -c blue -x 486.68973 -y 107.74103 -z 4
n -t 0.0 -s 27 -S UP -v circle -c blue -x 93.308 -y 377.757 -z 4
n -t 0.0 -s 55 -S UP -v circle -c blue -x 173.58136 -y 157.66216 -z 4
n -t 0.0 -s 56 -S UP -v circle -c blue -x 391.40097 -y 181.23424 -z 4
n -t 0.0 -s 28 -S UP -v circle -c blue -x 332.29248 -y 130.56764 -z 4
n -t 0.0 -s 57 -S UP -v circle -c blue -x 411.88577 -y 47.325344 -z 4
n -t 0.0 -s 58 -S UP -v circle -c blue -x 297.81363 -y 448.13666 -z 4
n -t 0.0 -s 14 -S UP -v circle -c blue -x 34.71175 -y 322.94608 -z 4
n -t 0.0 -s 29 -S UP -v circle -c blue -x 289.45206 -y 405.5847 -z 4
n -t 0.0 -s 59 -S UP -v circle -c blue -x 233.45953 -y 369.7145 -z 4
n -t 0.0 -s 60 -S UP -v circle -c blue -x 420.08054 -y 40.973186 -z 4
n -t 0.0 -s 30 -S UP -v circle -c blue -x 279.01782 -y 116.85118 -z 4
n -t 0.0 -s 61 -S UP -v circle -c blue -x 375.2802 -y 91.456566 -z 4
n -t 0.0 -s 62 -S UP -v circle -c blue -x 381.6374 -y 262.61737 -z 4
n -t 0.0784223 -s 50 -S UP -v circle -c blue -x 325.4255 -y 408.09003 -z 4
n -t 0.14727658 -s 21 -S UP -v circle -c blue -x 393.07648 -y 465.59457 -z 4
n -t 0.33292973 -s 58 -S UP -v circle -c blue -x 301.29285 -y 448.459 -z 4
n -t 0.42067182 -s 31 -S UP -v circle -c blue -x 334.87582 -y 139.21463 -z 4
n -t 0.62295514 -s 77 -S UP -v circle -c blue -x 126.93283 -y 335.00772 -z 4
n -t 0.7991807 -s 45 -S UP -v circle -c blue -x 223.91278 -y 332.7277 -z 4
n -t 0.91322184 -s 87 -S UP -v circle -c blue -x 443.5875 -y 360.86115 -z 4
n -t 1.3046024 -s 38 -S UP -v circle -c blue -x 357.57977 -y 282.94626 -z 4
n -t 1.3176172 -s 44 -S UP -v circle -c blue -x 356.53522 -y 262.55386 -z 4
n -t 1.4321952 -s 57 -S UP -v circle -c blue -x 428.37366 -y 53.059917 -z 4
n -t 1.5160018 -s 12 -S UP -v circle -c blue -x 387.22577 -y 390.4553 -z 4
n -t 1.7113878 -s 91 -S UP -v circle -c blue -x 373.59924 -y 205.46437 -z 4
n -t 1.7184659 -s 20 -S UP -v circle -c blue -x 352.5027 -y 21.664568 -z 4
n -t 1.7510768 -s 41 -S UP -v circle -c blue -x 21.019245 -y 163.05922 -z 4
n -t 1.7720077 -s 78 -S UP -v circle -c blue -x 101.91901 -y 380.60416 -z 4
n -t 1.7837468 -s 20 -S UP -v circle -c blue -x 352.57602 -y 21.356361 -z 4
n -t 1.8153416 -s 57 -S UP -v circle -c blue -x 422.27103 -y 50.404514 -z 4
n -t 1.8312914 -s 12 -S UP -v circle -c blue -x 390.89346 -y 391.24936 -z 4
n -t 1.9226215 -s 86 -S UP -v circle -c blue -x 489.1377 -y 236.42113 -z 4
n -t 1.962193 -s 61 -S UP -v circle -c blue -x 360.02585 -y 108.92363 -z 4
n -t 1.976463 -s 94 -S UP -v circle -c blue -x 368.37094 -y 135.28893 -z 4
n -t 2.011705 -s 21 -S UP -v circle -c blue -x 364.15268 -y 451.33963 -z 4
n -t 2.1738632 -s 28 -S UP -v circle -c blue -x 311.43845 -y 124.616325 -z 4
n -t 2.3170748 -s 94 -S UP -v circle -c blue -x 369.14694 -y 133.72601 -z 4
n -t 2.4986415 -s 79 -S UP -v circle -c blue -x 490.54932 -y 230.26645 -z 4
n -t 2.6602607 -s 57 -S UP -v circle -c blue -x 429.53174 -y 50.96016 -z 4
n -t 2.750222 -s 22 -S UP -v circle -c blue -x 297.4021 -y 394.0218 -z 4
n -t 2.8607612 -s 30 -S UP -v circle -c blue -x 316.58868 -y 103.654465 -z 4
n -t 2.9233882 -s 51 -S UP -v circle -c blue -x 362.40652 -y 9.680262 -z 4
n -t 2.9818602 -s 17 -S UP -v circle -c blue -x 110.37851 -y 310.82874 -z 4
n -t 3.0884626 -s 70 -S UP -v circle -c blue -x 451.92874 -y 295.12827 -z 4
n -t 3.1043434 -s 38 -S UP -v circle -c blue -x 366.2384 -y 310.9325 -z 4
n -t 3.235793 -s 14 -S UP -v circle -c blue -x 65.665535 -y 324.42465 -z 4
n -t 3.3756766 -s 76 -S UP -v circle -c blue -x 117.49785 -y 6.010522 -z 4
n -t 3.512553 -s 12 -S UP -v circle -c blue -x 372.69034 -y 384.5091 -z 4
n -t 3.6580167 -s 63 -S UP -v circle -c blue -x 293.96136 -y 77.882164 -z 4
n -t 3.9346476 -s 11 -S UP -v circle -c blue -x 210.14503 -y 181.21411 -z 4
n -t 4.0057993 -s 66 -S UP -v circle -c blue -x 446.42914 -y 65.71855 -z 4
n -t 4.0278225 -s 93 -S UP -v circle -c blue -x 255.81816 -y 218.65735 -z 4
n -t 4.078436 -s 71 -S UP -v circle -c blue -x 342.0752 -y 331.66794 -z 4
n -t 4.137664 -s 29 -S UP -v circle -c blue -x 329.55832 -y 457.9397 -z 4
n -t 4.1554065 -s 39 -S UP -v circle -c blue -x 343.84708 -y 136.57748 -z 4
n -t 4.316409 -s 39 -S UP -v circle -c blue -x 344.72388 -y 137.85432 -z 4
n -t 4.408858 -s 59 -S UP -v circle -c blue -x 165.52512 -y 420.67935 -z 4
n -t 4.551811 -s 100 -S UP -v circle -c blue -x 36.33467 -y 288.84564 -z 4
n -t 4.7451687 -s 90 -S UP -v circle -c blue -x 383.88757 -y 463.89618 -z 4
n -t 4.847191 -s 47 -S UP -v circle -c blue -x 439.0294 -y 416.59552 -z 4
n -t 4.9143295 -s 34 -S UP -v circle -c blue -x 266.06058 -y 446.46613 -z 4
n -t 5.0503 -s 74 -S UP -v circle -c blue -x 48.953716 -y 69.944244 -z 4
n -t 5.1394243 -s 85 -S UP -v circle -c blue -x 445.2883 -y 264.6378 -z 4
n -t 5.324236 -s 27 -S UP -v circle -c blue -x 188.3992 -y 414.3963 -z 4
n -t 5.748945 -s 27 -S UP -v circle -c blue -x 188.18192 -y 408.93405 -z 4
n -t 5.9682136 -s 60 -S UP -v circle -c blue -x 486.4051 -y 86.25266 -z 4
n -t 5.9772406 -s 84 -S UP -v circle -c blue -x 8.804534 -y 325.09128 -z 4
n -t 6.078928 -s 11 -S UP -v circle -c blue -x 219.47832 -y 195.44446 -z 4
n -t 6.0907607 -s 66 -S UP -v circle -c blue -x 422.21893 -y 85.5781 -z 4
n -t 6.402298 -s 75 -S UP -v circle -c blue -x 383.17816 -y 449.7713 -z 4
n -t 6.4196997 -s 62 -S UP -v circle -c blue -x 432.62677 -y 247.4179 -z 4
n -t 6.5975785 -s 60 -S UP -v circle -c blue -x 498.88916 -y 84.895966 -z 4
n -t 6.6213217 -s 26 -S UP -v circle -c blue -x 389.04553 -y 165.58142 -z 4
n -t 6.8432465 -s 100 -S UP -v circle -c blue -x 5.60447 -y 322.3642 -z 4
n -t 6.9288626 -s 61 -S UP -v circle -c blue -x 275.0618 -y 103.145775 -z 4
n -t 6.986837 -s 36 -S UP -v circle -c blue -x 136.41058 -y 191.03438 -z 4
n -t 7.200994 -s 19 -S UP -v circle -c blue -x 78.30298 -y 220.79562 -z 4
n -t 7.2093277 -s 94 -S UP -v circle -c blue -x 306.7455 -y 176.76357 -z 4
n -t 7.288511 -s 75 -S UP -v circle -c blue -x 385.93774 -y 446.0834 -z 4
n -t 7.2892823 -s 23 -S UP -v circle -c blue -x 410.26947 -y 20.523409 -z 4
n -t 7.3699317 -s 94 -S UP -v circle -c blue -x 306.86795 -y 177.92963 -z 4
n -t 7.3992853 -s 59 -S UP -v circle -c blue -x 165.17035 -y 367.11368 -z 4
n -t 7.4075003 -s 19 -S UP -v circle -c blue -x 74.60216 -y 221.01688 -z 4
n -t 7.7268834 -s 63 -S UP -v circle -c blue -x 254.70868 -y 16.884287 -z 4
n -t 7.9988365 -s 20 -S UP -v circle -c blue -x 303.28995 -y 40.31274 -z 4
n -t 8.057613 -s 63 -S UP -v circle -c blue -x 254.92548 -y 17.857485 -z 4
n -t 8.077925 -s 37 -S UP -v circle -c blue -x 150.67586 -y 212.20589 -z 4
n -t 8.172946 -s 74 -S UP -v circle -c blue -x 66.43734 -y 24.672813 -z 4
n -t 8.349592 -s 33 -S UP -v circle -c blue -x 473.60318 -y 447.49347 -z 4
n -t 8.466744 -s 65 -S UP -v circle -c blue -x 333.7735 -y 201.30916 -z 4
n -t 8.572552 -s 24 -S UP -v circle -c blue -x 433.79904 -y 9.798522 -z 4
n -t 9.053618 -s 74 -S UP -v circle -c blue -x 58.14118 -y 34.624256 -z 4
n -t 9.076622 -s 27 -S UP -v circle -c blue -x 195.79657 -y 454.36655 -z 4
n -t 9.182816 -s 96 -S UP -v circle -c blue -x 109.56249 -y 456.73376 -z 4
n -t 9.412827 -s 22 -S UP -v circle -c blue -x 336.6724 -y 486.9255 -z 4
n -t 9.467816 -s 75 -S UP -v circle -c blue -x 373.30722 -y 414.9478 -z 4
n -t 10.339519 -s 95 -S UP -v circle -c blue -x 99.11599 -y 34.23279 -z 4
n -t 10.447698 -s 72 -S UP -v circle -c blue -x 66.72784 -y 368.57663 -z 4
n -t 10.689397 -s 67 -S UP -v circle -c blue -x 91.21867 -y 60.54709 -z 4
n -t 10.90605 -s 82 -S UP -v circle -c blue -x 38.81187 -y 352.48642 -z 4
n -t 11.039692 -s 72 -S UP -v circle -c blue -x 75.88979 -y 372.01978 -z 4
n -t 11.837188 -s 22 -S UP -v circle -c blue -x 352.8423 -y 476.21072 -z 4
n -t 12.056775 -s 89 -S UP -v circle -c blue -x 454.52533 -y 216.09756 -z 4
n -t 12.069114 -s 36 -S UP -v circle -c blue -x 95.99161 -y 183.90056 -z 4
n -t 12.074376 -s 16 -S UP -v circle -c blue -x 56.812893 -y 270.48767 -z 4
n -t 12.085334 -s 63 -S UP -v circle -c blue -x 308.00363 -y 20.614582 -z 4
n -t 12.188303 -s 23 -S UP -v circle -c blue -x 463.24918 -y 1.4886887 -z 4
n -t 12.255081 -s 62 -S UP -v circle -c blue -x 441.0037 -y 278.53812 -z 4
n -t 12.44004 -s 34 -S UP -v circle -c blue -x 153.02534 -y 365.0549 -z 4
n -t 12.460443 -s 62 -S UP -v circle -c blue -x 441.77692 -y 282.05814 -z 4
n -t 12.52607 -s 78 -S UP -v circle -c blue -x 67.89891 -y 364.13666 -z 4
n -t 12.613284 -s 39 -S UP -v circle -c blue -x 398.4644 -y 60.91511 -z 4
n -t 12.644457 -s 81 -S UP -v circle -c blue -x 271.52432 -y 221.3502 -z 4
n -t 12.7079 -s 23 -S UP -v circle -c blue -x 467.25952 -y 6.3673286 -z 4
n -t 12.743254 -s 51 -S UP -v circle -c blue -x 339.10513 -y 103.64222 -z 4
n -t 12.800098 -s 86 -S UP -v circle -c blue -x 466.20508 -y 211.5386 -z 4
n -t 12.807611 -s 48 -S UP -v circle -c blue -x 283.024 -y 50.856102 -z 4
n -t 13.178662 -s 40 -S UP -v circle -c blue -x 272.91962 -y 244.34906 -z 4
n -t 13.402529 -s 72 -S UP -v circle -c blue -x 61.56649 -y 377.63126 -z 4
n -t 13.5205765 -s 22 -S UP -v circle -c blue -x 323.87317 -y 485.85803 -z 4
n -t 13.528751 -s 72 -S UP -v circle -c blue -x 59.29563 -y 378.09744 -z 4
n -t 13.639497 -s 38 -S UP -v circle -c blue -x 265.10992 -y 293.20285 -z 4
n -t 13.916902 -s 27 -S UP -v circle -c blue -x 178.24991 -y 476.4894 -z 4
n -t 13.992517 -s 45 -S UP -v circle -c blue -x 331.96954 -y 463.1498 -z 4
n -t 14.198996 -s 13 -S UP -v circle -c blue -x 492.8574 -y 97.50827 -z 4
n -t 14.317564 -s 38 -S UP -v circle -c blue -x 270.8138 -y 305.2402 -z 4
n -t 14.592111 -s 30 -S UP -v circle -c blue -x 408.40738 -y 46.858162 -z 4
n -t 14.96432 -s 33 -S UP -v circle -c blue -x 473.54324 -y 424.2417 -z 4
n -t 15.015009 -s 23 -S UP -v circle -c blue -x 462.52228 -y 11.334446 -z 4
n -t 15.205259 -s 27 -S UP -v circle -c blue -x 186.99059 -y 486.31696 -z 4
n -t 15.693407 -s 62 -S UP -v circle -c blue -x 439.82327 -y 324.0961 -z 4
n -t 15.797859 -s 67 -S UP -v circle -c blue -x 81.00535 -y 1.7715058 -z 4
n -t 16.071571 -s 22 -S UP -v circle -c blue -x 294.63452 -y 479.15652 -z 4
n -t 16.139523 -s 62 -S UP -v circle -c blue -x 446.91705 -y 320.24515 -z 4
n -t 16.73621 -s 99 -S UP -v circle -c blue -x 418.51035 -y 328.81573 -z 4
n -t 16.898642 -s 50 -S UP -v circle -c blue -x 482.0707 -y 284.7456 -z 4
n -t 16.902866 -s 85 -S UP -v circle -c blue -x 370.8399 -y 348.9366 -z 4
n -t 16.971258 -s 86 -S UP -v circle -c blue -x 477.13428 -y 161.95795 -z 4
n -t 17.041859 -s 45 -S UP -v circle -c blue -x 323.9496 -y 423.83398 -z 4
n -t 17.09729 -s 45 -S UP -v circle -c blue -x 323.34 -y 424.74002 -z 4
n -t 17.207796 -s 32 -S UP -v circle -c blue -x 272.2059 -y 191.96739 -z 4
n -t 17.51813 -s 62 -S UP -v circle -c blue -x 452.8476 -y 308.98914 -z 4
n -t 17.631138 -s 87 -S UP -v circle -c blue -x 450.63867 -y 410.9757 -z 4
n -t 17.865938 -s 91 -S UP -v circle -c blue -x 358.78296 -y 176.83766 -z 4
n -t 17.902409 -s 30 -S UP -v circle -c blue -x 416.86075 -y 82.02488 -z 4
n -t 18.283762 -s 11 -S UP -v circle -c blue -x 305.717 -y 334.79288 -z 4
n -t 18.35564 -s 78 -S UP -v circle -c blue -x 154.26541 -y 367.75766 -z 4
n -t 18.524088 -s 44 -S UP -v circle -c blue -x 300.65228 -y 226.9868 -z 4
n -t 18.564611 -s 75 -S UP -v circle -c blue -x 211.78508 -y 442.78958 -z 4
n -t 18.652546 -s 12 -S UP -v circle -c blue -x 415.61823 -y 293.71524 -z 4
n -t 18.6631 -s 84 -S UP -v circle -c blue -x 31.815273 -y 284.4257 -z 4
n -t 18.935894 -s 44 -S UP -v circle -c blue -x 293.3326 -y 223.68118 -z 4
n -t 19.05506 -s 79 -S UP -v circle -c blue -x 487.24127 -y 31.933899 -z 4
n -t 19.08804 -s 59 -S UP -v circle -c blue -x 223.70766 -y 414.10602 -z 4
n -t 19.199732 -s 15 -S UP -v circle -c blue -x 135.2182 -y 161.14072 -z 4
n -t 19.279879 -s 32 -S UP -v circle -c blue -x 300.94617 -y 208.63324 -z 4
n -t 19.320698 -s 31 -S UP -v circle -c blue -x 235.08087 -y 78.98776 -z 4
n -t 19.355034 -s 95 -S UP -v circle -c blue -x 114.735016 -y 65.96831 -z 4
n -t 19.476227 -s 78 -S UP -v circle -c blue -x 159.31592 -y 349.31726 -z 4
n -t 19.757446 -s 45 -S UP -v circle -c blue -x 348.10065 -y 397.48785 -z 4
n -t 20.199852 -s 28 -S UP -v circle -c blue -x 321.8537 -y 120.839745 -z 4
n -t 20.310957 -s 38 -S UP -v circle -c blue -x 211.43298 -y 379.42908 -z 4
n -t 20.348038 -s 45 -S UP -v circle -c blue -x 353.9266 -y 398.99973 -z 4
n -t 20.447098 -s 41 -S UP -v circle -c blue -x 27.263683 -y 136.08318 -z 4
n -t 20.45914 -s 95 -S UP -v circle -c blue -x 93.51951 -y 72.02737 -z 4
n -t 20.585342 -s 30 -S UP -v circle -c blue -x 435.21564 -y 52.86645 -z 4
n -t 20.766626 -s 32 -S UP -v circle -c blue -x 317.62823 -y 230.17981 -z 4
n -t 20.959576 -s 70 -S UP -v circle -c blue -x 430.76358 -y 293.65033 -z 4
n -t 21.071405 -s 67 -S UP -v circle -c blue -x 101.52943 -y 1.8884945 -z 4
n -t 21.188898 -s 60 -S UP -v circle -c blue -x 376.19107 -y 111.08188 -z 4
n -t 21.319948 -s 50 -S UP -v circle -c blue -x 454.8279 -y 288.8149 -z 4
n -t 21.440985 -s 78 -S UP -v circle -c blue -x 178.05283 -y 318.24402 -z 4
n -t 21.597355 -s 69 -S UP -v circle -c blue -x 356.9056 -y 38.221275 -z 4
n -t 21.7548 -s 20 -S UP -v circle -c blue -x 212.39249 -y 223.7128 -z 4
n -t 22.18856 -s 32 -S UP -v circle -c blue -x 297.2316 -y 220.05031 -z 4
n -t 22.264652 -s 70 -S UP -v circle -c blue -x 446.32867 -y 311.4248 -z 4
n -t 22.421434 -s 95 -S UP -v circle -c blue -x 84.34135 -y 85.94077 -z 4
n -t 22.585304 -s 20 -S UP -v circle -c blue -x 213.22386 -y 223.16574 -z 4
n -t 22.99442 -s 23 -S UP -v circle -c blue -x 305.5042 -y 9.446362 -z 4
n -t 23.017208 -s 44 -S UP -v circle -c blue -x 252.28731 -y 244.12424 -z 4
n -t 23.140505 -s 98 -S UP -v circle -c blue -x 132.12291 -y 229.66553 -z 4
n -t 23.253857 -s 60 -S UP -v circle -c blue -x 401.9803 -y 87.479385 -z 4
n -t 23.27223 -s 77 -S UP -v circle -c blue -x 80.54065 -y 286.08466 -z 4
n -t 23.743282 -s 63 -S UP -v circle -c blue -x 389.549 -y 31.360813 -z 4
n -t 23.785238 -s 80 -S UP -v circle -c blue -x 234.9443 -y 481.21155 -z 4
n -t 23.873789 -s 55 -S UP -v circle -c blue -x 286.16864 -y 47.580235 -z 4
n -t 23.89938 -s 36 -S UP -v circle -c blue -x 107.260056 -y 216.60258 -z 4
n -t 24.050503 -s 73 -S UP -v circle -c blue -x 21.275003 -y 280.67712 -z 4
n -t 24.202473 -s 31 -S UP -v circle -c blue -x 307.88284 -y 86.038246 -z 4
n -t 24.359552 -s 47 -S UP -v circle -c blue -x 432.14926 -y 418.8761 -z 4
n -t 24.791595 -s 69 -S UP -v circle -c blue -x 309.8141 -y 29.795046 -z 4
n -t 24.93479 -s 58 -S UP -v circle -c blue -x 249.52193 -y 473.71198 -z 4
n -t 25.043665 -s 33 -S UP -v circle -c blue -x 465.86972 -y 371.37158 -z 4
n -t 25.338442 -s 32 -S UP -v circle -c blue -x 327.626 -y 272.01587 -z 4
n -t 25.390482 -s 30 -S UP -v circle -c blue -x 364.2684 -y 80.19741 -z 4
n -t 25.47653 -s 82 -S UP -v circle -c blue -x 16.447708 -y 314.18204 -z 4
n -t 25.69953 -s 46 -S UP -v circle -c blue -x 210.91512 -y 87.27082 -z 4
n -t 25.73943 -s 90 -S UP -v circle -c blue -x 221.8474 -y 303.6276 -z 4
n -t 25.751398 -s 77 -S UP -v circle -c blue -x 102.67102 -y 284.1369 -z 4
n -t 25.869114 -s 79 -S UP -v circle -c blue -x 454.33502 -y 83.35216 -z 4
n -t 25.885687 -s 36 -S UP -v circle -c blue -x 84.50621 -y 206.30846 -z 4
n -t 26.963547 -s 36 -S UP -v circle -c blue -x 71.94866 -y 211.42737 -z 4
n -t 26.985023 -s 63 -S UP -v circle -c blue -x 367.76593 -y 1.370273 -z 4
n -t 27.138624 -s 48 -S UP -v circle -c blue -x 98.754616 -y 45.251923 -z 4
n -t 27.22093 -s 11 -S UP -v circle -c blue -x 305.19623 -y 248.17519 -z 4
n -t 27.28805 -s 21 -S UP -v circle -c blue -x 339.74576 -y 109.78707 -z 4
n -t 27.362282 -s 32 -S UP -v circle -c blue -x 340.63666 -y 234.80385 -z 4
n -t 27.522913 -s 27 -S UP -v circle -c blue -x 41.183323 -y 418.63876 -z 4
n -t 27.730522 -s 53 -S UP -v circle -c blue -x 52.90389 -y 10.670058 -z 4
n -t 27.765182 -s 53 -S UP -v circle -c blue -x 52.463017 -y 10.491391 -z 4
n -t 27.818764 -s 14 -S UP -v circle -c blue -x 59.126404 -y 293.7181 -z 4
n -t 28.049229 -s 28 -S UP -v circle -c blue -x 320.1113 -y 11.739864 -z 4
n -t 28.751907 -s 23 -S UP -v circle -c blue -x 301.5987 -y 4.5865417 -z 4
n -t 28.791267 -s 11 -S UP -v circle -c blue -x 312.6607 -y 255.21912 -z 4
n -t 28.833132 -s 46 -S UP -v circle -c blue -x 169.60928 -y 41.51446 -z 4
n -t 28.866875 -s 48 -S UP -v circle -c blue -x 88.70545 -y 22.462751 -z 4
n -t 29.225653 -s 28 -S UP -v circle -c blue -x 314.30014 -y 0.74976987 -z 4
n -t 29.283278 -s 82 -S UP -v circle -c blue -x 14.020987 -y 362.19354 -z 4
n -t 29.82526 -s 37 -S UP -v circle -c blue -x 493.17188 -y 24.26525 -z 4
n -t 29.917095 -s 38 -S UP -v circle -c blue -x 171.94981 -y 495.27734 -z 4
n -t 29.972479 -s 28 -S UP -v circle -c blue -x 306.76706 -y 3.8500178 -z 4
n -t 30.098806 -s 22 -S UP -v circle -c blue -x 291.32333 -y 290.95395 -z 4
n -t 30.194136 -s 38 -S UP -v circle -c blue -x 173.7421 -y 491.44446 -z 4
n -t 30.610327 -s 78 -S UP -v circle -c blue -x 190.28867 -y 340.2773 -z 4
n -t 30.69464 -s 82 -S UP -v circle -c blue -x 21.251423 -y 379.37054 -z 4