# Trace file generated by Jist/Swans Version 1.0.6. at Fri May 31 09:44:19 BRT 2013
V -t * -v 1.0a5 -a 0
W -t * -x 410 -y 410
A -t * -n 1 -p 0 -o 0xffffffff -c 31 -a 1
A -t * -h 1 -m 2147483647 -s 0
n -t 0.0 -s 1 -S UP -v circle -c red -x 204.86403 -y 107.987854 -z 4
n -t 0.0 -s 2 -S UP -v circle -c red -x 324.02618 -y 162.46721 -z 4
n -t 0.0 -s 3 -S UP -v circle -c red -x 396.684 -y 373.8761 -z 4
n -t 0.0 -s 4 -S UP -v circle -c red -x 138.5586 -y 180.23041 -z 4
n -t 0.0 -s 5 -S UP -v circle -c red -x 21.7157 -y 287.79724 -z 4
n -t 0.0 -s 6 -S UP -v circle -c red -x 74.85515 -y 287.3238 -z 4
n -t 0.0 -s 7 -S UP -v circle -c red -x 322.93213 -y 202.62134 -z 4
n -t 0.0 -s 8 -S UP -v circle -c red -x 8.781761 -y 12.568623 -z 4
n -t 0.0 -s 9 -S UP -v circle -c blue -x 190.32895 -y 55.651875 -z 4
n -t 0.0 -s 10 -S UP -v circle -c blue -x 205.29341 -y 10.83073 -z 4
n -t 0.0 -s 11 -S UP -v circle -c blue -x 480.33942 -y 159.79266 -z 4
n -t 0.0 -s 12 -S UP -v circle -c blue -x 259.27573 -y 310.12253 -z 4
n -t 0.0 -s 13 -S UP -v circle -c blue -x 347.02045 -y 295.30603 -z 4
n -t 0.0 -s 14 -S UP -v circle -c blue -x 277.6112 -y 190.48137 -z 4
n -t 0.0 -s 15 -S UP -v circle -c blue -x 25.55424 -y 8.971572 -z 4
n -t 0.0 -s 16 -S UP -v circle -c blue -x 65.09659 -y 233.43498 -z 4
n -t 0.0 -s 17 -S UP -v circle -c blue -x 304.62387 -y 143.65228 -z 4
n -t 0.0 -s 18 -S UP -v circle -c blue -x 133.64258 -y 318.2617 -z 4
n -t 0.0 -s 19 -S UP -v circle -c blue -x 124.259056 -y 104.019135 -z 4
n -t 0.0 -s 20 -S UP -v circle -c blue -x 270.33243 -y 450.32574 -z 4
n -t 0.0 -s 21 -S UP -v circle -c blue -x 107.873024 -y 182.71393 -z 4
n -t 0.0 -s 22 -S UP -v circle -c blue -x 298.94452 -y 2.8453171 -z 4
n -t 0.0 -s 23 -S UP -v circle -c blue -x 16.680658 -y 418.221 -z 4
n -t 0.0 -s 24 -S UP -v circle -c blue -x 104.6719 -y 287.80243 -z 4
n -t 0.0 -s 25 -S UP -v circle -c blue -x 228.939 -y 72.280914 -z 4
n -t 0.0 -s 26 -S UP -v circle -c blue -x 70.91427 -y 356.53995 -z 4
n -t 0.0 -s 27 -S UP -v circle -c blue -x 140.1172 -y 315.3687 -z 4
n -t 0.0 -s 28 -S UP -v circle -c blue -x 87.76891 -y 164.05118 -z 4
n -t 0.0 -s 29 -S UP -v circle -c blue -x 339.99628 -y 406.56085 -z 4
n -t 0.0 -s 30 -S UP -v circle -c blue -x 326.49472 -y 22.13815 -z 4
n -t 0.0 -s 31 -S UP -v circle -c blue -x 402.82727 -y 385.45462 -z 4
n -t 0.0 -s 32 -S UP -v circle -c blue -x 54.737778 -y 260.5132 -z 4
n -t 0.0 -s 33 -S UP -v circle -c blue -x 473.22714 -y 43.54757 -z 4
n -t 0.0 -s 34 -S UP -v circle -c blue -x 470.35052 -y 317.5017 -z 4
n -t 0.0 -s 35 -S UP -v circle -c blue -x 6.8486633 -y 468.92816 -z 4
n -t 0.0 -s 36 -S UP -v circle -c blue -x 113.554596 -y 285.1677 -z 4
n -t 0.0 -s 37 -S UP -v circle -c blue -x 236.58398 -y 418.01767 -z 4
n -t 0.0 -s 38 -S UP -v circle -c blue -x 439.0276 -y 140.25935 -z 4
n -t 0.0 -s 39 -S UP -v circle -c blue -x 254.91226 -y 341.6043 -z 4
n -t 0.0 -s 40 -S UP -v circle -c blue -x 81.957016 -y 241.12854 -z 4
n -t 0.0 -s 41 -S UP -v circle -c blue -x 95.91457 -y 408.14667 -z 4
n -t 0.0 -s 42 -S UP -v circle -c blue -x 280.61127 -y 361.42285 -z 4
n -t 0.0 -s 43 -S UP -v circle -c blue -x 48.58887 -y 427.33624 -z 4
n -t 0.0 -s 44 -S UP -v circle -c blue -x 47.625988 -y 349.5276 -z 4
n -t 0.0 -s 45 -S UP -v circle -c blue -x 60.71508 -y 181.69441 -z 4
n -t 0.0 -s 46 -S UP -v circle -c blue -x 42.77882 -y 445.02866 -z 4
n -t 0.0 -s 47 -S UP -v circle -c blue -x 291.15527 -y 347.45737 -z 4
n -t 0.0 -s 48 -S UP -v circle -c blue -x 150.99937 -y 182.39322 -z 4
n -t 0.0 -s 49 -S UP -v circle -c blue -x 421.8113 -y 100.54022 -z 4
n -t 0.0 -s 50 -S UP -v circle -c blue -x 24.894445 -y 461.0867 -z 4
n -t 0.0 -s 1 -S UP -v circle -c red -x 204.86403 -y 107.987854 -z 4
n -t 0.0 -s 3 -S UP -v circle -c red -x 396.684 -y 373.8761 -z 4
n -t 0.0 -s 7 -S UP -v circle -c red -x 322.93213 -y 202.62134 -z 4
n -t 0.0 -s 15 -S UP -v circle -c blue -x 25.55424 -y 8.971572 -z 4
n -t 0.0 -s 31 -S UP -v circle -c blue -x 402.82727 -y 385.45462 -z 4
n -t 0.0 -s 32 -S UP -v circle -c blue -x 54.737778 -y 260.5132 -z 4
n -t 0.0 -s 16 -S UP -v circle -c blue -x 65.09659 -y 233.43498 -z 4
n -t 0.0 -s 33 -S UP -v circle -c blue -x 473.22714 -y 43.54757 -z 4
n -t 0.0 -s 34 -S UP -v circle -c blue -x 470.35052 -y 317.5017 -z 4
n -t 0.0 -s 8 -S UP -v circle -c red -x 8.781761 -y 12.568623 -z 4
n -t 0.0 -s 17 -S UP -v circle -c blue -x 304.62387 -y 143.65228 -z 4
n -t 0.0 -s 35 -S UP -v circle -c blue -x 6.8486633 -y 468.92816 -z 4
n -t 0.0 -s 36 -S UP -v circle -c blue -x 113.554596 -y 285.1677 -z 4
n -t 0.0 -s 18 -S UP -v circle -c blue -x 133.64258 -y 318.2617 -z 4
n -t 0.0 -s 37 -S UP -v circle -c blue -x 236.58398 -y 418.01767 -z 4
n -t 0.0 -s 38 -S UP -v circle -c blue -x 439.0276 -y 140.25935 -z 4
n -t 0.0 -s 4 -S UP -v circle -c red -x 138.5586 -y 180.23041 -z 4
n -t 0.0 -s 9 -S UP -v circle -c blue -x 190.32895 -y 55.651875 -z 4
n -t 0.0 -s 19 -S UP -v circle -c blue -x 124.259056 -y 104.019135 -z 4
n -t 0.0 -s 39 -S UP -v circle -c blue -x 254.91226 -y 341.6043 -z 4
n -t 0.0 -s 40 -S UP -v circle -c blue -x 81.957016 -y 241.12854 -z 4
n -t 0.0 -s 20 -S UP -v circle -c blue -x 270.33243 -y 450.32574 -z 4
n -t 0.0 -s 41 -S UP -v circle -c blue -x 95.91457 -y 408.14667 -z 4
n -t 0.0 -s 42 -S UP -v circle -c blue -x 280.61127 -y 361.42285 -z 4
n -t 0.0 -s 10 -S UP -v circle -c blue -x 205.29341 -y 10.83073 -z 4
n -t 0.0 -s 21 -S UP -v circle -c blue -x 107.873024 -y 182.71393 -z 4
n -t 0.0 -s 43 -S UP -v circle -c blue -x 48.58887 -y 427.33624 -z 4
n -t 0.0 -s 44 -S UP -v circle -c blue -x 47.625988 -y 349.5276 -z 4
n -t 0.0 -s 22 -S UP -v circle -c blue -x 298.94452 -y 2.8453171 -z 4
n -t 0.0 -s 45 -S UP -v circle -c blue -x 60.71508 -y 181.69441 -z 4
n -t 0.0 -s 46 -S UP -v circle -c blue -x 42.77882 -y 445.02866 -z 4
n -t 0.0 -s 2 -S UP -v circle -c red -x 324.02618 -y 162.46721 -z 4
n -t 0.0 -s 5 -S UP -v circle -c red -x 21.7157 -y 287.79724 -z 4
n -t 0.0 -s 11 -S UP -v circle -c blue -x 480.33942 -y 159.79266 -z 4
n -t 0.0 -s 23 -S UP -v circle -c blue -x 16.680658 -y 418.221 -z 4
n -t 0.0 -s 47 -S UP -v circle -c blue -x 291.15527 -y 347.45737 -z 4
n -t 0.0 -s 48 -S UP -v circle -c blue -x 150.99937 -y 182.39322 -z 4
n -t 0.0 -s 24 -S UP -v circle -c blue -x 104.6719 -y 287.80243 -z 4
n -t 0.0 -s 49 -S UP -v circle -c blue -x 421.8113 -y 100.54022 -z 4
n -t 0.0 -s 50 -S UP -v circle -c blue -x 24.894445 -y 461.0867 -z 4
n -t 0.0 -s 12 -S UP -v circle -c blue -x 259.27573 -y 310.12253 -z 4
n -t 0.0 -s 25 -S UP -v circle -c blue -x 228.939 -y 72.280914 -z 4
n -t 0.0 -s 26 -S UP -v circle -c blue -x 70.91427 -y 356.53995 -z 4
n -t 0.0 -s 6 -S UP -v circle -c red -x 74.85515 -y 287.3238 -z 4
n -t 0.0 -s 13 -S UP -v circle -c blue -x 347.02045 -y 295.30603 -z 4
n -t 0.0 -s 27 -S UP -v circle -c blue -x 140.1172 -y 315.3687 -z 4
n -t 0.0 -s 28 -S UP -v circle -c blue -x 87.76891 -y 164.05118 -z 4
n -t 0.0 -s 14 -S UP -v circle -c blue -x 277.6112 -y 190.48137 -z 4
n -t 0.0 -s 29 -S UP -v circle -c blue -x 339.99628 -y 406.56085 -z 4
n -t 0.0 -s 30 -S UP -v circle -c blue -x 326.49472 -y 22.13815 -z 4
n -t 0.07758721 -s 21 -S UP -v circle -c blue -x 107.52963 -y 183.62749 -z 4
n -t 0.12270196 -s 50 -S UP -v circle -c blue -x 24.414291 -y 462.20322 -z 4
n -t 1.0526514 -s 20 -S UP -v circle -c blue -x 284.8661 -y 442.6913 -z 4
n -t 1.1042957 -s 38 -S UP -v circle -c blue -x 430.6821 -y 131.75423 -z 4
n -t 1.166324 -s 44 -S UP -v circle -c blue -x 26.790958 -y 357.7537 -z 4
n -t 1.726452 -s 41 -S UP -v circle -c blue -x 79.84888 -y 388.93036 -z 4
n -t 2.040469 -s 12 -S UP -v circle -c blue -x 254.21094 -y 281.4615 -z 4
n -t 2.705468 -s 28 -S UP -v circle -c blue -x 105.11858 -y 151.0397 -z 4
n -t 2.824682 -s 44 -S UP -v circle -c blue -x 35.844116 -y 348.6686 -z 4
n -t 3.0690904 -s 33 -S UP -v circle -c blue -x 487.1676 -y 12.664226 -z 4
n -t 3.1304202 -s 14 -S UP -v circle -c blue -x 320.9885 -y 215.91621 -z 4
n -t 3.2413452 -s 45 -S UP -v circle -c blue -x 46.555565 -y 186.73038 -z 4
n -t 3.646835 -s 37 -S UP -v circle -c blue -x 223.85863 -y 365.3523 -z 4
n -t 3.941179 -s 28 -S UP -v circle -c blue -x 100.01712 -y 147.10497 -z 4
n -t 4.34837 -s 38 -S UP -v circle -c blue -x 474.62628 -y 161.75172 -z 4
n -t 4.6481404 -s 21 -S UP -v circle -c blue -x 172.31647 -y 141.2093 -z 4
n -t 4.652516 -s 40 -S UP -v circle -c blue -x 29.531935 -y 265.27322 -z 4
n -t 4.7155633 -s 22 -S UP -v circle -c blue -x 305.93872 -y 37.869022 -z 4
n -t 5.0417037 -s 37 -S UP -v circle -c blue -x 246.27089 -y 371.30914 -z 4
n -t 5.1299467 -s 19 -S UP -v circle -c blue -x 170.17047 -y 111.98467 -z 4
n -t 5.3233967 -s 34 -S UP -v circle -c blue -x 455.4098 -y 315.88315 -z 4
n -t 5.4613814 -s 29 -S UP -v circle -c blue -x 382.59915 -y 456.90524 -z 4
n -t 6.3908668 -s 20 -S UP -v circle -c blue -x 254.4381 -y 402.89365 -z 4
n -t 6.537393 -s 50 -S UP -v circle -c blue -x 61.87469 -y 465.2943 -z 4
n -t 6.5563354 -s 26 -S UP -v circle -c blue -x 32.645832 -y 310.5136 -z 4
n -t 6.651206 -s 21 -S UP -v circle -c blue -x 173.48889 -y 110.03446 -z 4
n -t 6.660215 -s 44 -S UP -v circle -c blue -x 43.030853 -y 349.70496 -z 4
n -t 6.7670617 -s 38 -S UP -v circle -c blue -x 490.9368 -y 170.73021 -z 4
n -t 6.7958894 -s 39 -S UP -v circle -c blue -x 276.99387 -y 384.208 -z 4
n -t 7.4190416 -s 13 -S UP -v circle -c blue -x 324.19043 -y 293.95703 -z 4
n -t 7.5405955 -s 17 -S UP -v circle -c blue -x 328.04294 -y 130.87944 -z 4
n -t 7.5946417 -s 36 -S UP -v circle -c blue -x 8.811093 -y 342.3448 -z 4
n -t 8.05768 -s 31 -S UP -v circle -c blue -x 404.7823 -y 379.7301 -z 4
n -t 8.844989 -s 17 -S UP -v circle -c blue -x 342.06198 -y 141.28145 -z 4
n -t 8.998397 -s 46 -S UP -v circle -c blue -x 66.56112 -y 448.791 -z 4
n -t 9.139355 -s 19 -S UP -v circle -c blue -x 107.10593 -y 106.16614 -z 4
n -t 9.79932 -s 38 -S UP -v circle -c blue -x 489.6883 -y 197.71846 -z 4
n -t 11.024809 -s 20 -S UP -v circle -c blue -x 274.0818 -y 325.879 -z 4
n -t 11.893086 -s 16 -S UP -v circle -c blue -x 194.13509 -y 172.4002 -z 4
n -t 12.104454 -s 44 -S UP -v circle -c blue -x 63.912304 -y 341.48505 -z 4
n -t 12.122806 -s 36 -S UP -v circle -c blue -x 71.98247 -y 284.66016 -z 4
n -t 12.276991 -s 46 -S UP -v circle -c blue -x 30.306385 -y 447.72223 -z 4
n -t 12.390617 -s 17 -S UP -v circle -c blue -x 374.32016 -y 177.53871 -z 4
n -t 12.464496 -s 19 -S UP -v circle -c blue -x 50.908978 -y 134.97276 -z 4
n -t 12.745913 -s 21 -S UP -v circle -c blue -x 127.24767 -y 1.2568443 -z 4
n -t 12.864006 -s 21 -S UP -v circle -c blue -x 125.79373 -y 2.7407727 -z 4
n -t 13.08853 -s 17 -S UP -v circle -c blue -x 370.5679 -y 180.21013 -z 4
n -t 13.46445 -s 12 -S UP -v circle -c blue -x 379.93448 -y 224.75 -z 4
n -t 13.610727 -s 13 -S UP -v circle -c blue -x 387.21234 -y 312.37747 -z 4
n -t 13.7153 -s 26 -S UP -v circle -c blue -x 25.293528 -y 338.70105 -z 4
n -t 13.811356 -s 38 -S UP -v circle -c blue -x 479.9691 -y 196.5637 -z 4
n -t 13.957095 -s 25 -S UP -v circle -c blue -x 240.37616 -y 114.13482 -z 4
n -t 14.493885 -s 20 -S UP -v circle -c blue -x 251.52199 -y 368.06512 -z 4
n -t 15.494537 -s 41 -S UP -v circle -c blue -x 28.372574 -y 477.5005 -z 4
n -t 15.658861 -s 44 -S UP -v circle -c blue -x 29.261507 -y 312.9735 -z 4
n -t 15.799012 -s 44 -S UP -v circle -c blue -x 27.804312 -y 312.44846 -z 4
n -t 16.391674 -s 21 -S UP -v circle -c blue -x 163.95377 -y 38.786205 -z 4
n -t 16.41002 -s 21 -S UP -v circle -c blue -x 163.7011 -y 38.97733 -z 4
n -t 16.458431 -s 47 -S UP -v circle -c blue -x 379.85474 -y 347.1861 -z 4
n -t 16.5537 -s 23 -S UP -v circle -c blue -x 26.963985 -y 279.54532 -z 4
n -t 17.649467 -s 47 -S UP -v circle -c blue -x 375.98593 -y 358.6647 -z 4
n -t 18.755152 -s 44 -S UP -v circle -c blue -x 66.16743 -y 309.82864 -z 4
n -t 18.985209 -s 22 -S UP -v circle -c blue -x 202.60033 -y 7.0468287 -z 4
n -t 19.444153 -s 23 -S UP -v circle -c blue -x 34.052174 -y 305.93564 -z 4
n -t 20.129587 -s 46 -S UP -v circle -c blue -x 34.77254 -y 333.40393 -z 4
n -t 20.522123 -s 41 -S UP -v circle -c blue -x 80.23866 -y 453.635 -z 4
n -t 21.13067 -s 11 -S UP -v circle -c blue -x 476.85187 -y 196.79199 -z 4
n -t 22.510284 -s 35 -S UP -v circle -c blue -x 203.86295 -y 478.78018 -z 4
n -t 22.877686 -s 35 -S UP -v circle -c blue -x 207.0966 -y 480.1039 -z 4
n -t 24.692778 -s 20 -S UP -v circle -c blue -x 214.84174 -y 358.94894 -z 4
n -t 25.875189 -s 21 -S UP -v circle -c blue -x 99.977875 -y 57.067966 -z 4
n -t 26.30248 -s 17 -S UP -v circle -c blue -x 323.09088 -y 376.1956 -z 4
n -t 26.35994 -s 13 -S UP -v circle -c blue -x 441.24796 -y 173.14027 -z 4
n -t 26.416817 -s 45 -S UP -v circle -c blue -x 462.6936 -y 388.48392 -z 4
n -t 26.814844 -s 35 -S UP -v circle -c blue -x 235.60739 -y 430.31918 -z 4
n -t 27.042377 -s 20 -S UP -v circle -c blue -x 183.57278 -y 351.07227 -z 4
n -t 27.077803 -s 38 -S UP -v circle -c blue -x 461.67297 -y 401.58337 -z 4
n -t 27.747932 -s 18 -S UP -v circle -c blue -x 108.41688 -y 313.98184 -z 4
n -t 27.814344 -s 17 -S UP -v circle -c blue -x 350.55493 -y 379.72073 -z 4
n -t 27.896584 -s 41 -S UP -v circle -c blue -x 64.74084 -y 468.7134 -z 4
n -t 28.125402 -s 41 -S UP -v circle -c blue -x 65.73899 -y 470.14468 -z 4
n -t 28.529032 -s 34 -S UP -v circle -c blue -x 479.52045 -y 452.26062 -z 4
n -t 28.539417 -s 28 -S UP -v circle -c blue -x 161.03247 -y 220.57414 -z 4
n -t 28.770306 -s 34 -S UP -v circle -c blue -x 476.4313 -y 453.34604 -z 4
n -t 29.04958 -s 41 -S UP -v circle -c blue -x 68.04937 -y 473.1018 -z 4
n -t 29.398987 -s 22 -S UP -v circle -c blue -x 313.02148 -y 18.099747 -z 4
n -t 31.746758 -s 21 -S UP -v circle -c blue -x 162.90671 -y 103.58747 -z 4
n -t 31.873451 -s 13 -S UP -v circle -c blue -x 437.30457 -y 219.69814 -z 4
n -t 32.731136 -s 36 -S UP -v circle -c blue -x 100.276306 -y 146.07887 -z 4
n -t 33.103336 -s 39 -S UP -v circle -c blue -x 53.27449 -y 327.80035 -z 4
n -t 33.231567 -s 12 -S UP -v circle -c blue -x 251.59557 -y 222.82684 -z 4
n -t 33.266678 -s 21 -S UP -v circle -c blue -x 165.73965 -y 127.62441 -z 4
n -t 34.024887 -s 35 -S UP -v circle -c blue -x 110.515564 -y 399.46182 -z 4
n -t 34.28302 -s 41 -S UP -v circle -c blue -x 63.25463 -y 470.57712 -z 4
n -t 34.329674 -s 41 -S UP -v circle -c blue -x 63.715015 -y 470.4574 -z 4
n -t 35.69745 -s 34 -S UP -v circle -c blue -x 410.5764 -y 478.1992 -z 4
n -t 36.102745 -s 25 -S UP -v circle -c blue -x 206.9815 -y 86.911446 -z 4
n -t 36.63462 -s 20 -S UP -v circle -c blue -x 194.57292 -y 250.2595 -z 4
n -t 38.186436 -s 45 -S UP -v circle -c blue -x 469.72745 -y 483.4544 -z 4
n -t 38.663803 -s 27 -S UP -v circle -c blue -x 97.19044 -y 351.70218 -z 4
n -t 39.237762 -s 33 -S UP -v circle -c blue -x 318.50198 -y 143.18633 -z 4
n -t 39.281124 -s 22 -S UP -v circle -c blue -x 131.75429 -y 61.0855 -z 4
n -t 39.286797 -s 44 -S UP -v circle -c blue -x 56.47688 -y 331.9605 -z 4
n -t 39.60091 -s 27 -S UP -v circle -c blue -x 104.4234 -y 354.62875 -z 4
n -t 39.835136 -s 20 -S UP -v circle -c blue -x 146.50163 -y 225.7993 -z 4
n -t 40.305614 -s 18 -S UP -v circle -c blue -x 100.987885 -y 313.5379 -z 4
n -t 40.444916 -s 25 -S UP -v circle -c blue -x 236.97583 -y 102.57625 -z 4
n -t 40.85127 -s 39 -S UP -v circle -c blue -x 114.1061 -y 406.96338 -z 4
n -t 41.10223 -s 29 -S UP -v circle -c blue -x 306.12228 -y 368.46225 -z 4
n -t 41.219273 -s 25 -S UP -v circle -c blue -x 242.74335 -y 113.73098 -z 4
n -t 42.85131 -s 24 -S UP -v circle -c blue -x 89.86374 -y 318.90808 -z 4
n -t 43.016758 -s 24 -S UP -v circle -c blue -x 93.124 -y 318.8954 -z 4
n -t 43.81201 -s 41 -S UP -v circle -c blue -x 94.82068 -y 499.4006 -z 4
n -t 44.45875 -s 24 -S UP -v circle -c blue -x 75.96657 -y 317.80435 -z 4
n -t 44.831696 -s 44 -S UP -v circle -c blue -x 33.26543 -y 292.68326 -z 4
n -t 44.95952 -s 26 -S UP -v circle -c blue -x 67.91186 -y 354.3017 -z 4
n -t 44.967487 -s 39 -S UP -v circle -c blue -x 102.214165 -y 341.71805 -z 4
n -t 45.10675 -s 42 -S UP -v circle -c blue -x 185.98247 -y 331.16736 -z 4
n -t 45.54755 -s 33 -S UP -v circle -c blue -x 315.3174 -y 75.62686 -z 4
n -t 46.15932 -s 47 -S UP -v circle -c blue -x 463.57547 -y 196.79283 -z 4
n -t 46.68034 -s 36 -S UP -v circle -c blue -x 128.51068 -y 406.77563 -z 4
n -t 47.469433 -s 41 -S UP -v circle -c blue -x 130.57663 -y 454.76044 -z 4
n -t 47.66829 -s 23 -S UP -v circle -c blue -x 91.26716 -y 309.21643 -z 4
n -t 49.20317 -s 49 -S UP -v circle -c blue -x 375.42813 -y 369.1533 -z 4
n -t 49.43454 -s 33 -S UP -v circle -c blue -x 308.2283 -y 12.793064 -z 4
n -t 49.898865 -s 11 -S UP -v circle -c blue -x 435.90225 -y 139.65433 -z 4
n -t 50.059513 -s 20 -S UP -v circle -c blue -x 12.564471 -y 149.75523 -z 4
n -t 50.45793 -s 49 -S UP -v circle -c blue -x 374.79498 -y 380.98508 -z 4
n -t 50.52947 -s 24 -S UP -v circle -c blue -x 109.40466 -y 345.213 -z 4
n -t 51.043938 -s 39 -S UP -v circle -c blue -x 2.8956175 -y 315.69623 -z 4
n -t 51.047825 -s 44 -S UP -v circle -c blue -x 58.03744 -y 332.6793 -z 4
n -t 51.30779 -s 20 -S UP -v circle -c blue -x 20.991833 -y 129.19978 -z 4
n -t 51.48087 -s 30 -S UP -v circle -c blue -x 303.7178 -y 10.525814 -z 4
n -t 51.541348 -s 41 -S UP -v circle -c blue -x 135.74005 -y 402.20758 -z 4
n -t 52.287903 -s 36 -S UP -v circle -c blue -x 31.065084 -y 375.07776 -z 4
n -t 53.265553 -s 34 -S UP -v circle -c blue -x 448.4337 -y 467.8813 -z 4
n -t 53.767982 -s 33 -S UP -v circle -c blue -x 255.70148 -y 66.733795 -z 4
n -t 55.079926 -s 11 -S UP -v circle -c blue -x 434.26584 -y 122.71517 -z 4
n -t 55.652573 -s 44 -S UP -v circle -c blue -x 59.55308 -y 326.9039 -z 4
n -t 56.786522 -s 34 -S UP -v circle -c blue -x 413.86722 -y 487.60037 -z 4
n -t 57.027245 -s 39 -S UP -v circle -c blue -x 47.113785 -y 220.25366 -z 4
n -t 57.028706 -s 30 -S UP -v circle -c blue -x 244.1723 -y 6.8940177 -z 4
n -t 57.65726 -s 34 -S UP -v circle -c blue -x 414.8602 -y 487.51038 -z 4
n -t 57.798393 -s 39 -S UP -v circle -c blue -x 59.935493 -y 224.85869 -z 4
n -t 58.92772 -s 33 -S UP -v circle -c blue -x 192.50154 -y 112.15335 -z 4
n -t 59.07343 -s 21 -S UP -v circle -c blue -x 26.29949 -y 100.24519 -z 4
n -t 59.651855 -s 44 -S UP -v circle -c blue -x 83.17573 -y 326.48636 -z 4
n -t 59.717583 -s 21 -S UP -v circle -c blue -x 26.28904 -y 93.58988 -z 4
n -t 61.39505 -s 29 -S UP -v circle -c blue -x 168.55576 -y 390.37576 -z 4
n -t 62.974022 -s 28 -S UP -v circle -c blue -x 135.79935 -y 232.87434 -z 4
n -t 63.69485 -s 36 -S UP -v circle -c blue -x 29.305218 -y 329.23462 -z 4
n -t 63.807087 -s 28 -S UP -v circle -c blue -x 129.93307 -y 246.87794 -z 4
n -t 64.23384 -s 34 -S UP -v circle -c blue -x 434.31665 -y 433.15414 -z 4
n -t 64.570984 -s 23 -S UP -v circle -c blue -x 127.50157 -y 359.08508 -z 4
n -t 64.79228 -s 47 -S UP -v circle -c blue -x 355.4121 -y 400.85886 -z 4
n -t 65.646835 -s 32 -S UP -v circle -c blue -x 284.05313 -y 200.21225 -z 4
n -t 66.72232 -s 37 -S UP -v circle -c blue -x 237.02202 -y 443.2534 -z 4
n -t 67.1163 -s 22 -S UP -v circle -c blue -x 171.3536 -y 46.387424 -z 4
n -t 69.43361 -s 11 -S UP -v circle -c blue -x 441.34915 -y 105.18912 -z 4
n -t 71.62808 -s 47 -S UP -v circle -c blue -x 252.17265 -y 431.7252 -z 4
n -t 71.920364 -s 25 -S UP -v circle -c blue -x 238.16791 -y 60.988567 -z 4
n -t 71.927376 -s 23 -S UP -v circle -c blue -x 174.84413 -y 235.23409 -z 4
n -t 72.48389 -s 25 -S UP -v circle -c blue -x 232.00961 -y 64.874725 -z 4
n -t 72.937546 -s 24 -S UP -v circle -c blue -x 80.39075 -y 299.24832 -z 4
n -t 72.93781 -s 28 -S UP -v circle -c blue -x 233.5438 -y 315.40002 -z 4
n -t 74.445076 -s 42 -S UP -v circle -c blue -x 128.75673 -y 475.93848 -z 4
n -t 74.496956 -s 20 -S UP -v circle -c blue -x 28.383451 -y 168.76956 -z 4
n -t 76.196495 -s 49 -S UP -v circle -c blue -x 375.47745 -y 381.93848 -z 4
n -t 76.44003 -s 36 -S UP -v circle -c blue -x 59.80358 -y 385.8322 -z 4
n -t 76.65286 -s 28 -S UP -v circle -c blue -x 162.28476 -y 318.70676 -z 4
n -t 76.852806 -s 20 -S UP -v circle -c blue -x 35.288624 -y 180.16039 -z 4
n -t 77.92385 -s 25 -S UP -v circle -c blue -x 212.5442 -y 102.37456 -z 4
n -t 77.95591 -s 46 -S UP -v circle -c blue -x 165.95297 -y 294.3566 -z 4
n -t 78.20391 -s 37 -S UP -v circle -c blue -x 186.40343 -y 471.0366 -z 4
n -t 79.510025 -s 32 -S UP -v circle -c blue -x 447.13562 -y 178.27196 -z 4
n -t 79.93544 -s 37 -S UP -v circle -c blue -x 186.99304 -y 437.44183 -z 4
n -t 80.5962 -s 32 -S UP -v circle -c blue -x 431.23984 -y 179.39798 -z 4
n -t 81.06395 -s 49 -S UP -v circle -c blue -x 378.95657 -y 345.93774 -z 4
n -t 81.11767 -s 40 -S UP -v circle -c blue -x 32.44828 -y 389.26758 -z 4
n -t 81.47052 -s 29 -S UP -v circle -c blue -x 174.41016 -y 395.874 -z 4
n -t 82.24894 -s 11 -S UP -v circle -c blue -x 385.90155 -y 139.71745 -z 4
n -t 82.40531 -s 30 -S UP -v circle -c blue -x 77.87633 -y 176.35518 -z 4
n -t 82.44297 -s 45 -S UP -v circle -c blue -x 449.62955 -y 318.85095 -z 4
n -t 82.47087 -s 12 -S UP -v circle -c blue -x 325.37668 -y 29.320854 -z 4
n -t 82.95015 -s 13 -S UP -v circle -c blue -x 483.3761 -y 22.69171 -z 4
n -t 83.33383 -s 13 -S UP -v circle -c blue -x 485.67044 -y 17.729921 -z 4
n -t 83.52209 -s 40 -S UP -v circle -c blue -x 62.469013 -y 398.17212 -z 4
n -t 83.66747 -s 40 -S UP -v circle -c blue -x 65.13494 -y 397.07428 -z 4
n -t 84.5241 -s 11 -S UP -v circle -c blue -x 391.68948 -y 105.240486 -z 4
n -t 84.84416 -s 39 -S UP -v circle -c blue -x 48.4971 -y 13.673472 -z 4
n -t 84.87117 -s 29 -S UP -v circle -c blue -x 183.38385 -y 405.21906 -z 4
n -t 85.07391 -s 11 -S UP -v circle -c blue -x 395.81104 -y 106.46615 -z 4
n -t 85.646675 -s 29 -S UP -v circle -c blue -x 193.37387 -y 396.66455 -z 4
n -t 85.67294 -s 12 -S UP -v circle -c blue -x 336.3655 -y 27.911875 -z 4
n -t 86.95796 -s 32 -S UP -v circle -c blue -x 325.81848 -y 168.12119 -z 4
n -t 87.067535 -s 12 -S UP -v circle -c blue -x 330.04977 -y 49.05239 -z 4
n -t 87.099464 -s 32 -S UP -v circle -c blue -x 325.0834 -y 169.74718 -z 4
n -t 87.25515 -s 29 -S UP -v circle -c blue -x 175.71248 -y 379.0072 -z 4
n -t 87.72049 -s 11 -S UP -v circle -c blue -x 412.21945 -y 81.35496 -z 4
n -t 89.097244 -s 42 -S UP -v circle -c blue -x 214.88872 -y 424.2896 -z 4
n -t 89.12881 -s 29 -S UP -v circle -c blue -x 139.16124 -y 385.16687 -z 4
n -t 89.281715 -s 34 -S UP -v circle -c blue -x 476.1185 -y 443.7994 -z 4
n -t 89.31073 -s 40 -S UP -v circle -c blue -x 110.998566 -y 431.337 -z 4
n -t 89.51806 -s 40 -S UP -v circle -c blue -x 113.2134 -y 432.02158 -z 4
n -t 89.97837 -s 15 -S UP -v circle -c blue -x 275.5628 -y 34.79914 -z 4
n -t 90.140564 -s 29 -S UP -v circle -c blue -x 140.10564 -y 404.26303 -z 4
n -t 90.254524 -s 49 -S UP -v circle -c blue -x 389.9073 -y 491.60242 -z 4
n -t 90.25815 -s 27 -S UP -v circle -c blue -x 133.45271 -y 340.63092 -z 4
n -t 91.22277 -s 12 -S UP -v circle -c blue -x 325.0941 -y 44.303215 -z 4
n -t 91.30519 -s 20 -S UP -v circle -c blue -x 33.39912 -y 174.1343 -z 4
n -t 91.34883 -s 46 -S UP -v circle -c blue -x 337.98685 -y 276.19772 -z 4
n -t 91.38447 -s 26 -S UP -v circle -c blue -x 65.86895 -y 354.0687 -z 4
n -t 92.090515 -s 11 -S UP -v circle -c blue -x 424.4352 -y 52.526413 -z 4
n -t 92.83208 -s 25 -S UP -v circle -c blue -x 220.27267 -y 94.969826 -z 4
n -t 93.29266 -s 11 -S UP -v circle -c blue -x 432.86444 -y 60.929527 -z 4
n -t 93.388054 -s 25 -S UP -v circle -c blue -x 220.81773 -y 94.13713 -z 4
n -t 94.349434 -s 45 -S UP -v circle -c blue -x 476.29742 -y 360.86838 -z 4
n -t 94.9522 -s 43 -S UP -v circle -c blue -x 0.28302383 -y 216.13293 -z 4
n -t 95.22376 -s 33 -S UP -v circle -c blue -x 96.09797 -y 244.67296 -z 4
n -t 95.40199 -s 40 -S UP -v circle -c blue -x 197.72249 -y 488.2705 -z 4
n -t 95.74587 -s 25 -S UP -v circle -c blue -x 195.99016 -y 118.02662 -z 4
n -t 96.258316 -s 43 -S UP -v circle -c blue -x 5.3157005 -y 217.57668 -z 4
n -t 97.0774 -s 46 -S UP -v circle -c blue -x 259.29263 -y 252.27388 -z 4
n -t 97.14001 -s 46 -S UP -v circle -c blue -x 258.37256 -y 251.6857 -z 4
n -t 98.82068 -s 40 -S UP -v circle -c blue -x 222.49594 -y 490.84113 -z 4
n -t 98.8735 -s 29 -S UP -v circle -c blue -x 221.02707 -y 459.5818 -z 4
n -t 99.16328 -s 12 -S UP -v circle -c blue -x 332.33612 -y 107.45196 -z 4
n -t 99.50409 -s 40 -S UP -v circle -c blue -x 217.5536 -y 479.30817 -z 4
n -t 99.92469 -s 25 -S UP -v circle -c blue -x 196.8287 -y 103.484535 -z 4
n -t 100.98218 -s 43 -S UP -v circle -c blue -x 3.1817017 -y 208.1076 -z 4
n -t 103.01422 -s 50 -S UP -v circle -c blue -x 262.93402 -y 98.9669 -z 4
n -t 103.71768 -s 11 -S UP -v circle -c blue -x 456.62878 -y 113.54126 -z 4
n -t 103.944984 -s 12 -S UP -v circle -c blue -x 247.4839 -y 64.6715 -z 4
n -t 104.26977 -s 47 -S UP -v circle -c blue -x 334.21667 -y 403.94614 -z 4
n -t 104.276955 -s 27 -S UP -v circle -c blue -x 84.214676 -y 353.26648 -z 4
n -t 104.3089 -s 47 -S UP -v circle -c blue -x 334.00613 -y 404.19778 -z 4
n -t 104.346176 -s 45 -S UP -v circle -c blue -x 391.35037 -y 223.36568 -z 4
n -t 104.371704 -s 20 -S UP -v circle -c blue -x 85.23157 -y 162.37459 -z 4
n -t 104.443535 -s 12 -S UP -v circle -c blue -x 242.89194 -y 60.78032 -z 4
n -t 104.51259 -s 50 -S UP -v circle -c blue -x 257.13528 -y 78.558 -z 4
n -t 105.59937 -s 12 -S UP -v circle -c blue -x 232.6288 -y 60.83679 -z 4
n -t 106.501076 -s 42 -S UP -v circle -c blue -x 199.46211 -y 261.11307 -z 4
n -t 107.05088 -s 47 -S UP -v circle -c blue -x 298.88672 -y 395.07388 -z 4
n -t 107.30498 -s 13 -S UP -v circle -c blue -x 462.46515 -y 32.648426 -z 4
n -t 107.357086 -s 45 -S UP -v circle -c blue -x 356.9861 -y 188.10587 -z 4
n -t 108.13599 -s 35 -S UP -v circle -c blue -x 28.580359 -y 324.24945 -z 4
n -t 108.63472 -s 45 -S UP -v circle -c blue -x 360.64758 -y 175.10223 -z 4
n -t 109.378235 -s 28 -S UP -v circle -c blue -x 190.68619 -y 201.61136 -z 4
n -t 109.8213 -s 13 -S UP -v circle -c blue -x 482.74857 -y 35.784496 -z 4
n -t 110.62854 -s 45 -S UP -v circle -c blue -x 344.16815 -y 177.60219 -z 4
n -t 112.647896 -s 26 -S UP -v circle -c blue -x 39.124043 -y 298.59073 -z 4
n -t 114.370445 -s 20 -S UP -v circle -c blue -x 234.45923 -y 72.79626 -z 4
n -t 114.735245 -s 40 -S UP -v circle -c blue -x 294.9143 -y 459.61557 -z 4
n -t 115.31631 -s 43 -S UP -v circle -c blue -x 91.00124 -y 127.524605 -z 4
n -t 116.34303 -s 40 -S UP -v circle -c blue -x 280.08173 -y 482.47473 -z 4
n -t 116.597565 -s 22 -S UP -v circle -c blue -x 28.442036 -y 475.23538 -z 4
n -t 116.95822 -s 22 -S UP -v circle -c blue -x 28.360094 -y 478.83838 -z 4
n -t 117.02487 -s 39 -S UP -v circle -c blue -x 141.88905 -y 24.25826 -z 4
n -t 117.18706 -s 47 -S UP -v circle -c blue -x 273.79376 -y 424.65582 -z 4
n -t 117.39413 -s 33 -S UP -v circle -c blue -x 80.7615 -y 448.9789 -z 4
n -t 118.027214 -s 20 -S UP -v circle -c blue -x 250.41208 -y 37.07112 -z 4
n -t 118.25753 -s 50 -S UP -v circle -c blue -x 371.32962 -y 19.59908 -z 4
n -t 118.50682 -s 39 -S UP -v circle -c blue -x 165.0815 -y 42.284927 -z 4
n -t 118.75578 -s 42 -S UP -v circle -c blue -x 306.76663 -y 384.2226 -z 4
n -t 118.797806 -s 26 -S UP -v circle -c blue -x 70.49344 -y 305.9124 -z 4
n -t 119.61527 -s 31 -S UP -v circle -c blue -x 447.62192 -y 376.53336 -z 4
n -t 120.14776 -s 13 -S UP -v circle -c blue -x 379.75452 -y 39.111122 -z 4
n -t 120.29155 -s 25 -S UP -v circle -c blue -x 237.07272 -y 58.852528 -z 4
n -t 120.38298 -s 13 -S UP -v circle -c blue -x 376.0183 -y 41.097103 -z 4
n -t 120.85608 -s 11 -S UP -v circle -c blue -x 165.50935 -y 17.778032 -z 4
n -t 121.58066 -s 39 -S UP -v circle -c blue -x 137.48543 -y 9.863209 -z 4
n -t 121.88347 -s 22 -S UP -v circle -c blue -x 6.3218517 -y 460.33142 -z 4
n -t 121.90925 -s 27 -S UP -v circle -c blue -x 123.6588 -y 341.2392 -z 4
n -t 122.793 -s 28 -S UP -v circle -c blue -x 116.86078 -y 175.07498 -z 4
n -t 123.78765 -s 33 -S UP -v circle -c blue -x 85.98032 -y 467.66794 -z 4
n -t 124.72829 -s 26 -S UP -v circle -c blue -x 38.315483 -y 302.8228 -z 4
n -t 125.05545 -s 28 -S UP -v circle -c blue -x 109.88899 -y 164.78198 -z 4
n -t 125.650955 -s 39 -S UP -v circle -c blue -x 78.13792 -y 27.457956 -z 4
n -t 126.4101 -s 25 -S UP -v circle -c blue -x 209.5885 -y 90.97296 -z 4
n -t 126.884056 -s 43 -S UP -v circle -c blue -x 143.69345 -y 128.08447 -z 4
n -t 127.757515 -s 28 -S UP -v circle -c blue -x 95.6809 -y 168.27466 -z 4
n -t 127.85133 -s 24 -S UP -v circle -c blue -x 115.489655 -y 349.53503 -z 4
n -t 128.54082 -s 36 -S UP -v circle -c blue -x 13.7475605 -y 386.8001 -z 4
n -t 128.85115 -s 40 -S UP -v circle -c blue -x 328.05472 -y 415.3916 -z 4
n -t 129.28859 -s 28 -S UP -v circle -c blue -x 103.92295 -y 154.7289 -z 4
n -t 129.59557 -s 20 -S UP -v circle -c blue -x 27.957947 -y 21.140934 -z 4
n -t 129.66592 -s 38 -S UP -v circle -c blue -x 351.5715 -y 424.5295 -z 4
n -t 132.59756 -s 22 -S UP -v circle -c blue -x 85.88459 -y 318.75742 -z 4
n -t 133.61876 -s 28 -S UP -v circle -c blue -x 155.68237 -y 134.68971 -z 4
n -t 134.49301 -s 45 -S UP -v circle -c blue -x 40.6295 -y 187.12523 -z 4
n -t 134.59341 -s 26 -S UP -v circle -c blue -x 81.011024 -y 350.0032 -z 4
n -t 134.59877 -s 35 -S UP -v circle -c blue -x 305.17432 -y 485.4583 -z 4
n -t 134.83945 -s 27 -S UP -v circle -c blue -x 129.08879 -y 314.10263 -z 4
n -t 134.85515 -s 43 -S UP -v circle -c blue -x 195.86899 -y 158.11702 -z 4
n -t 135.16331 -s 47 -S UP -v circle -c blue -x 295.61545 -y 431.17072 -z 4
n -t 135.60472 -s 36 -S UP -v circle -c blue -x 9.065249 -y 494.91214 -z 4
n -t 135.90639 -s 35 -S UP -v circle -c blue -x 305.95078 -y 489.35083 -z 4
n -t 136.38858 -s 45 -S UP -v circle -c blue -x 42.81592 -y 180.81891 -z 4
n -t 136.49248 -s 38 -S UP -v circle -c blue -x 471.49994 -y 470.53146 -z 4
n -t 136.57042 -s 46 -S UP -v circle -c blue -x 227.35968 -y 193.81335 -z 4
n -t 137.4138 -s 46 -S UP -v circle -c blue -x 227.95912 -y 186.73169 -z 4
n -t 137.57768 -s 26 -S UP -v circle -c blue -x 70.788536 -y 313.801 -z 4
n -t 138.37181 -s 43 -S UP -v circle -c blue -x 152.00835 -y 201.24355 -z 4
n -t 138.45627 -s 36 -S UP -v circle -c blue -x 18.278072 -y 478.24878 -z 4
n -t 139.18307 -s 24 -S UP -v circle -c blue -x 121.17063 -y 304.41293 -z 4