# Trace file generated by Jist/Swans Version 1.0.6. at Fri Jul 26 18:38:54 BRT 2013
V -t * -v 1.0a5 -a 0
W -t * -x 410 -y 410
A -t * -n 1 -p 0 -o 0xffffffff -c 31 -a 1
A -t * -h 1 -m 2147483647 -s 0
n -t 0.0 -s 1 -S UP -v circle -c red -x 283.35934 -y 311.65128 -z 4
n -t 0.0 -s 2 -S UP -v circle -c red -x 109.41094 -y 259.73328 -z 4
n -t 0.0 -s 3 -S UP -v circle -c red -x 481.12817 -y 255.41275 -z 4
n -t 0.0 -s 4 -S UP -v circle -c red -x 223.21742 -y 154.0193 -z 4
n -t 0.0 -s 5 -S UP -v circle -c red -x 278.24805 -y 498.70428 -z 4
n -t 0.0 -s 6 -S UP -v circle -c red -x 154.73247 -y 427.58392 -z 4
n -t 0.0 -s 7 -S UP -v circle -c red -x 232.15953 -y 254.46892 -z 4
n -t 0.0 -s 8 -S UP -v circle -c red -x 57.00442 -y 236.48766 -z 4
n -t 0.0 -s 9 -S UP -v circle -c blue -x 470.15396 -y 311.72394 -z 4
n -t 0.0 -s 10 -S UP -v circle -c blue -x 166.06358 -y 452.8861 -z 4
n -t 0.0 -s 11 -S UP -v circle -c blue -x 62.553467 -y 387.79126 -z 4
n -t 0.0 -s 12 -S UP -v circle -c blue -x 7.1351824 -y 345.08838 -z 4
n -t 0.0 -s 13 -S UP -v circle -c blue -x 168.26874 -y 49.36415 -z 4
n -t 0.0 -s 14 -S UP -v circle -c blue -x 23.873747 -y 451.5571 -z 4
n -t 0.0 -s 15 -S UP -v circle -c blue -x 192.7959 -y 201.65793 -z 4
n -t 0.0 -s 16 -S UP -v circle -c blue -x 336.6647 -y 404.8501 -z 4
n -t 0.0 -s 17 -S UP -v circle -c blue -x 311.00482 -y 98.51465 -z 4
n -t 0.0 -s 18 -S UP -v circle -c blue -x 100.782425 -y 321.3012 -z 4
n -t 0.0 -s 19 -S UP -v circle -c blue -x 498.40952 -y 61.66291 -z 4
n -t 0.0 -s 20 -S UP -v circle -c blue -x 384.1076 -y 447.57883 -z 4
n -t 0.0 -s 21 -S UP -v circle -c blue -x 154.23387 -y 11.344194 -z 4
n -t 0.0 -s 22 -S UP -v circle -c blue -x 332.52982 -y 267.3407 -z 4
n -t 0.0 -s 23 -S UP -v circle -c blue -x 480.16953 -y 454.86963 -z 4
n -t 0.0 -s 24 -S UP -v circle -c blue -x 190.3556 -y 58.398754 -z 4
n -t 0.0 -s 25 -S UP -v circle -c blue -x 141.38055 -y 385.70987 -z 4
n -t 0.0 -s 26 -S UP -v circle -c blue -x 5.22235 -y 33.68473 -z 4
n -t 0.0 -s 27 -S UP -v circle -c blue -x 295.59146 -y 49.485325 -z 4
n -t 0.0 -s 28 -S UP -v circle -c blue -x 170.32239 -y 145.62166 -z 4
n -t 0.0 -s 29 -S UP -v circle -c blue -x 144.99123 -y 100.43108 -z 4
n -t 0.0 -s 30 -S UP -v circle -c blue -x 150.25592 -y 323.19803 -z 4
n -t 0.0 -s 31 -S UP -v circle -c blue -x 80.61853 -y 222.97925 -z 4
n -t 0.0 -s 32 -S UP -v circle -c blue -x 445.57346 -y 401.2389 -z 4
n -t 0.0 -s 33 -S UP -v circle -c blue -x 234.73198 -y 428.11777 -z 4
n -t 0.0 -s 34 -S UP -v circle -c blue -x 180.99629 -y 91.38992 -z 4
n -t 0.0 -s 35 -S UP -v circle -c blue -x 91.70607 -y 357.94513 -z 4
n -t 0.0 -s 36 -S UP -v circle -c blue -x 345.31006 -y 200.67831 -z 4
n -t 0.0 -s 37 -S UP -v circle -c blue -x 388.97513 -y 378.80963 -z 4
n -t 0.0 -s 38 -S UP -v circle -c blue -x 69.84609 -y 84.88053 -z 4
n -t 0.0 -s 39 -S UP -v circle -c blue -x 46.6446 -y 402.76334 -z 4
n -t 0.0 -s 40 -S UP -v circle -c blue -x 146.06616 -y 306.1907 -z 4
n -t 0.0 -s 41 -S UP -v circle -c blue -x 126.216354 -y 317.62323 -z 4
n -t 0.0 -s 42 -S UP -v circle -c blue -x 450.75388 -y 165.91069 -z 4
n -t 0.0 -s 43 -S UP -v circle -c blue -x 437.48257 -y 1.2464821 -z 4
n -t 0.0 -s 44 -S UP -v circle -c blue -x 355.3397 -y 88.3275 -z 4
n -t 0.0 -s 45 -S UP -v circle -c blue -x 388.52216 -y 448.92166 -z 4
n -t 0.0 -s 46 -S UP -v circle -c blue -x 40.52192 -y 119.04707 -z 4
n -t 0.0 -s 47 -S UP -v circle -c blue -x 30.804516 -y 411.95667 -z 4
n -t 0.0 -s 48 -S UP -v circle -c blue -x 251.11809 -y 64.44562 -z 4
n -t 0.0 -s 49 -S UP -v circle -c blue -x 162.038 -y 168.21182 -z 4
n -t 0.0 -s 50 -S UP -v circle -c blue -x 202.44464 -y 275.39478 -z 4
n -t 0.0 -s 51 -S UP -v circle -c blue -x 259.3903 -y 463.76062 -z 4
n -t 0.0 -s 52 -S UP -v circle -c blue -x 467.87073 -y 372.0211 -z 4
n -t 0.0 -s 53 -S UP -v circle -c blue -x 269.2956 -y 51.041454 -z 4
n -t 0.0 -s 54 -S UP -v circle -c blue -x 327.86038 -y 413.16397 -z 4
n -t 0.0 -s 55 -S UP -v circle -c blue -x 244.92458 -y 429.44406 -z 4
n -t 0.0 -s 56 -S UP -v circle -c blue -x 170.0708 -y 347.77737 -z 4
n -t 0.0 -s 57 -S UP -v circle -c blue -x 14.640003 -y 375.60892 -z 4
n -t 0.0 -s 58 -S UP -v circle -c blue -x 485.1257 -y 1.3484359 -z 4
n -t 0.0 -s 59 -S UP -v circle -c blue -x 273.9466 -y 443.8343 -z 4
n -t 0.0 -s 60 -S UP -v circle -c blue -x 276.6697 -y 171.23094 -z 4
n -t 0.0 -s 61 -S UP -v circle -c blue -x 407.55267 -y 62.615513 -z 4
n -t 0.0 -s 62 -S UP -v circle -c blue -x 481.3209 -y 445.5576 -z 4
n -t 0.0 -s 63 -S UP -v circle -c blue -x 178.62329 -y 446.88452 -z 4
n -t 0.0 -s 64 -S UP -v circle -c blue -x 294.1886 -y 53.229897 -z 4
n -t 0.0 -s 65 -S UP -v circle -c blue -x 28.98088 -y 262.08145 -z 4
n -t 0.0 -s 66 -S UP -v circle -c blue -x 99.67282 -y 71.70507 -z 4
n -t 0.0 -s 67 -S UP -v circle -c blue -x 250.20003 -y 95.553246 -z 4
n -t 0.0 -s 68 -S UP -v circle -c blue -x 82.2019 -y 206.40852 -z 4
n -t 0.0 -s 69 -S UP -v circle -c blue -x 242.98918 -y 22.412807 -z 4
n -t 0.0 -s 70 -S UP -v circle -c blue -x 315.23038 -y 144.29149 -z 4
n -t 0.0 -s 71 -S UP -v circle -c blue -x 36.126076 -y 161.06343 -z 4
n -t 0.0 -s 72 -S UP -v circle -c blue -x 312.97845 -y 325.20404 -z 4
n -t 0.0 -s 73 -S UP -v circle -c blue -x 390.13098 -y 41.948616 -z 4
n -t 0.0 -s 74 -S UP -v circle -c blue -x 252.75453 -y 261.42883 -z 4
n -t 0.0 -s 75 -S UP -v circle -c blue -x 141.87288 -y 110.25816 -z 4
n -t 0.0 -s 76 -S UP -v circle -c blue -x 496.9071 -y 28.17893 -z 4
n -t 0.0 -s 77 -S UP -v circle -c blue -x 329.89636 -y 427.53287 -z 4
n -t 0.0 -s 78 -S UP -v circle -c blue -x 34.08611 -y 498.5399 -z 4
n -t 0.0 -s 79 -S UP -v circle -c blue -x 475.35672 -y 361.27103 -z 4
n -t 0.0 -s 80 -S UP -v circle -c blue -x 227.07376 -y 174.86472 -z 4
n -t 0.0 -s 81 -S UP -v circle -c blue -x 227.42271 -y 168.3489 -z 4
n -t 0.0 -s 82 -S UP -v circle -c blue -x 467.42847 -y 186.82567 -z 4
n -t 0.0 -s 83 -S UP -v circle -c blue -x 235.64755 -y 104.6094 -z 4
n -t 0.0 -s 84 -S UP -v circle -c blue -x 249.96854 -y 163.19168 -z 4
n -t 0.0 -s 85 -S UP -v circle -c blue -x 304.36322 -y 176.31837 -z 4
n -t 0.0 -s 86 -S UP -v circle -c blue -x 258.03558 -y 211.1291 -z 4
n -t 0.0 -s 87 -S UP -v circle -c blue -x 358.28976 -y 91.003 -z 4
n -t 0.0 -s 88 -S UP -v circle -c blue -x 94.79102 -y 241.79042 -z 4
n -t 0.0 -s 89 -S UP -v circle -c blue -x 395.3892 -y 246.81007 -z 4
n -t 0.0 -s 90 -S UP -v circle -c blue -x 68.71933 -y 194.73354 -z 4
n -t 0.0 -s 91 -S UP -v circle -c blue -x 87.080956 -y 406.99783 -z 4
n -t 0.0 -s 92 -S UP -v circle -c blue -x 291.18463 -y 34.04969 -z 4
n -t 0.0 -s 93 -S UP -v circle -c blue -x 70.25996 -y 155.2191 -z 4
n -t 0.0 -s 94 -S UP -v circle -c blue -x 329.39246 -y 405.9195 -z 4
n -t 0.0 -s 95 -S UP -v circle -c blue -x 346.54816 -y 488.28076 -z 4
n -t 0.0 -s 96 -S UP -v circle -c blue -x 174.469 -y 367.78726 -z 4
n -t 0.0 -s 97 -S UP -v circle -c blue -x 296.72565 -y 326.1688 -z 4
n -t 0.0 -s 98 -S UP -v circle -c blue -x 187.53815 -y 172.76373 -z 4
n -t 0.0 -s 99 -S UP -v circle -c blue -x 140.63173 -y 459.09845 -z 4
n -t 0.0 -s 100 -S UP -v circle -c blue -x 418.55313 -y 135.7385 -z 4
n -t 0.0 -s 101 -S UP -v circle -c blue -x 131.73582 -y 92.65423 -z 4
n -t 0.0 -s 102 -S UP -v circle -c blue -x 406.04877 -y 28.69907 -z 4
n -t 0.0 -s 103 -S UP -v circle -c blue -x 301.23083 -y 333.8876 -z 4
n -t 0.0 -s 104 -S UP -v circle -c blue -x 249.69998 -y 277.78906 -z 4
n -t 0.0 -s 105 -S UP -v circle -c blue -x 237.50777 -y 2.3872554 -z 4
n -t 0.0 -s 106 -S UP -v circle -c blue -x 351.30182 -y 231.76482 -z 4
n -t 0.0 -s 107 -S UP -v circle -c blue -x 55.284172 -y 174.36377 -z 4
n -t 0.0 -s 108 -S UP -v circle -c blue -x 279.17657 -y 75.977715 -z 4
n -t 0.0 -s 109 -S UP -v circle -c blue -x 124.96668 -y 427.9198 -z 4
n -t 0.0 -s 110 -S UP -v circle -c blue -x 472.64172 -y 205.26099 -z 4
n -t 0.0 -s 111 -S UP -v circle -c blue -x 70.95429 -y 461.81836 -z 4
n -t 0.0 -s 112 -S UP -v circle -c blue -x 49.561916 -y 287.76538 -z 4
n -t 0.0 -s 113 -S UP -v circle -c blue -x 429.90143 -y 395.81326 -z 4
n -t 0.0 -s 114 -S UP -v circle -c blue -x 354.61237 -y 336.68173 -z 4
n -t 0.0 -s 115 -S UP -v circle -c blue -x 382.25345 -y 220.25368 -z 4
n -t 0.0 -s 116 -S UP -v circle -c blue -x 218.09859 -y 211.91644 -z 4
n -t 0.0 -s 117 -S UP -v circle -c blue -x 226.88577 -y 68.18825 -z 4
n -t 0.0 -s 118 -S UP -v circle -c blue -x 25.335402 -y 445.33682 -z 4
n -t 0.0 -s 119 -S UP -v circle -c blue -x 377.09262 -y 311.2388 -z 4
n -t 0.0 -s 120 -S UP -v circle -c blue -x 300.9614 -y 84.55971 -z 4
n -t 0.0 -s 121 -S UP -v circle -c blue -x 382.5987 -y 187.4308 -z 4
n -t 0.0 -s 122 -S UP -v circle -c blue -x 228.35573 -y 86.98115 -z 4
n -t 0.0 -s 123 -S UP -v circle -c blue -x 366.25662 -y 315.99872 -z 4
n -t 0.0 -s 124 -S UP -v circle -c blue -x 74.68083 -y 240.59439 -z 4
n -t 0.0 -s 125 -S UP -v circle -c blue -x 243.63289 -y 31.646698 -z 4
n -t 0.0 -s 126 -S UP -v circle -c blue -x 311.07614 -y 206.05731 -z 4
n -t 0.0 -s 127 -S UP -v circle -c blue -x 130.20047 -y 24.252176 -z 4
n -t 0.0 -s 128 -S UP -v circle -c blue -x 75.19644 -y 247.57933 -z 4
n -t 0.0 -s 129 -S UP -v circle -c blue -x 44.213474 -y 24.64801 -z 4
n -t 0.0 -s 130 -S UP -v circle -c blue -x 250.57864 -y 472.8157 -z 4
n -t 0.0 -s 131 -S UP -v circle -c blue -x 266.83377 -y 262.6939 -z 4
n -t 0.0 -s 132 -S UP -v circle -c blue -x 151.12909 -y 225.59103 -z 4
n -t 0.0 -s 133 -S UP -v circle -c blue -x 306.45566 -y 99.8213 -z 4
n -t 0.0 -s 134 -S UP -v circle -c blue -x 127.181206 -y 453.61285 -z 4
n -t 0.0 -s 135 -S UP -v circle -c blue -x 136.60324 -y 118.76929 -z 4
n -t 0.0 -s 136 -S UP -v circle -c blue -x 215.8488 -y 307.25897 -z 4
n -t 0.0 -s 137 -S UP -v circle -c blue -x 189.87212 -y 232.16939 -z 4
n -t 0.0 -s 138 -S UP -v circle -c blue -x 67.5039 -y 58.098316 -z 4
n -t 0.0 -s 139 -S UP -v circle -c blue -x 221.2032 -y 47.519535 -z 4
n -t 0.0 -s 140 -S UP -v circle -c blue -x 202.77893 -y 167.28416 -z 4
n -t 0.0 -s 141 -S UP -v circle -c blue -x 227.79784 -y 227.13402 -z 4
n -t 0.0 -s 142 -S UP -v circle -c blue -x 312.12012 -y 486.78494 -z 4
n -t 0.0 -s 143 -S UP -v circle -c blue -x 279.13882 -y 390.7792 -z 4
n -t 0.0 -s 144 -S UP -v circle -c blue -x 260.1148 -y 260.21976 -z 4
n -t 0.0 -s 145 -S UP -v circle -c blue -x 166.23276 -y 388.49896 -z 4
n -t 0.0 -s 146 -S UP -v circle -c blue -x 118.04268 -y 166.65909 -z 4
n -t 0.0 -s 147 -S UP -v circle -c blue -x 295.13586 -y 488.886 -z 4
n -t 0.0 -s 148 -S UP -v circle -c blue -x 424.7493 -y 349.1399 -z 4
n -t 0.0 -s 149 -S UP -v circle -c blue -x 195.30841 -y 80.73899 -z 4
n -t 0.0 -s 150 -S UP -v circle -c blue -x 183.34792 -y 411.02097 -z 4
n -t 0.0 -s 1 -S UP -v circle -c red -x 283.35934 -y 311.65128 -z 4
n -t 0.0 -s 150 -S UP -v circle -c blue -x 183.34792 -y 411.02097 -z 4
n -t 0.0 -s 3 -S UP -v circle -c red -x 481.12817 -y 255.41275 -z 4
n -t 0.0 -s 7 -S UP -v circle -c red -x 232.15953 -y 254.46892 -z 4
n -t 0.0 -s 149 -S UP -v circle -c blue -x 195.30841 -y 80.73899 -z 4
n -t 0.0 -s 15 -S UP -v circle -c blue -x 192.7959 -y 201.65793 -z 4
n -t 0.0 -s 31 -S UP -v circle -c blue -x 80.61853 -y 222.97925 -z 4
n -t 0.0 -s 63 -S UP -v circle -c blue -x 178.62329 -y 446.88452 -z 4
n -t 0.0 -s 127 -S UP -v circle -c blue -x 130.20047 -y 24.252176 -z 4
n -t 0.0 -s 128 -S UP -v circle -c blue -x 75.19644 -y 247.57933 -z 4
n -t 0.0 -s 64 -S UP -v circle -c blue -x 294.1886 -y 53.229897 -z 4
n -t 0.0 -s 129 -S UP -v circle -c blue -x 44.213474 -y 24.64801 -z 4
n -t 0.0 -s 130 -S UP -v circle -c blue -x 250.57864 -y 472.8157 -z 4
n -t 0.0 -s 32 -S UP -v circle -c blue -x 445.57346 -y 401.2389 -z 4
n -t 0.0 -s 65 -S UP -v circle -c blue -x 28.98088 -y 262.08145 -z 4
n -t 0.0 -s 131 -S UP -v circle -c blue -x 266.83377 -y 262.6939 -z 4
n -t 0.0 -s 132 -S UP -v circle -c blue -x 151.12909 -y 225.59103 -z 4
n -t 0.0 -s 66 -S UP -v circle -c blue -x 99.67282 -y 71.70507 -z 4
n -t 0.0 -s 133 -S UP -v circle -c blue -x 306.45566 -y 99.8213 -z 4
n -t 0.0 -s 134 -S UP -v circle -c blue -x 127.181206 -y 453.61285 -z 4
n -t 0.0 -s 16 -S UP -v circle -c blue -x 336.6647 -y 404.8501 -z 4
n -t 0.0 -s 33 -S UP -v circle -c blue -x 234.73198 -y 428.11777 -z 4
n -t 0.0 -s 67 -S UP -v circle -c blue -x 250.20003 -y 95.553246 -z 4
n -t 0.0 -s 135 -S UP -v circle -c blue -x 136.60324 -y 118.76929 -z 4
n -t 0.0 -s 136 -S UP -v circle -c blue -x 215.8488 -y 307.25897 -z 4
n -t 0.0 -s 68 -S UP -v circle -c blue -x 82.2019 -y 206.40852 -z 4
n -t 0.0 -s 137 -S UP -v circle -c blue -x 189.87212 -y 232.16939 -z 4
n -t 0.0 -s 138 -S UP -v circle -c blue -x 67.5039 -y 58.098316 -z 4
n -t 0.0 -s 34 -S UP -v circle -c blue -x 180.99629 -y 91.38992 -z 4
n -t 0.0 -s 69 -S UP -v circle -c blue -x 242.98918 -y 22.412807 -z 4
n -t 0.0 -s 139 -S UP -v circle -c blue -x 221.2032 -y 47.519535 -z 4
n -t 0.0 -s 140 -S UP -v circle -c blue -x 202.77893 -y 167.28416 -z 4
n -t 0.0 -s 70 -S UP -v circle -c blue -x 315.23038 -y 144.29149 -z 4
n -t 0.0 -s 141 -S UP -v circle -c blue -x 227.79784 -y 227.13402 -z 4
n -t 0.0 -s 142 -S UP -v circle -c blue -x 312.12012 -y 486.78494 -z 4
n -t 0.0 -s 8 -S UP -v circle -c red -x 57.00442 -y 236.48766 -z 4
n -t 0.0 -s 17 -S UP -v circle -c blue -x 311.00482 -y 98.51465 -z 4
n -t 0.0 -s 35 -S UP -v circle -c blue -x 91.70607 -y 357.94513 -z 4
n -t 0.0 -s 71 -S UP -v circle -c blue -x 36.126076 -y 161.06343 -z 4
n -t 0.0 -s 143 -S UP -v circle -c blue -x 279.13882 -y 390.7792 -z 4
n -t 0.0 -s 144 -S UP -v circle -c blue -x 260.1148 -y 260.21976 -z 4
n -t 0.0 -s 72 -S UP -v circle -c blue -x 312.97845 -y 325.20404 -z 4
n -t 0.0 -s 145 -S UP -v circle -c blue -x 166.23276 -y 388.49896 -z 4
n -t 0.0 -s 146 -S UP -v circle -c blue -x 118.04268 -y 166.65909 -z 4
n -t 0.0 -s 36 -S UP -v circle -c blue -x 345.31006 -y 200.67831 -z 4
n -t 0.0 -s 73 -S UP -v circle -c blue -x 390.13098 -y 41.948616 -z 4
n -t 0.0 -s 147 -S UP -v circle -c blue -x 295.13586 -y 488.886 -z 4
n -t 0.0 -s 148 -S UP -v circle -c blue -x 424.7493 -y 349.1399 -z 4
n -t 0.0 -s 74 -S UP -v circle -c blue -x 252.75453 -y 261.42883 -z 4
n -t 0.0 -s 18 -S UP -v circle -c blue -x 100.782425 -y 321.3012 -z 4
n -t 0.0 -s 37 -S UP -v circle -c blue -x 388.97513 -y 378.80963 -z 4
n -t 0.0 -s 75 -S UP -v circle -c blue -x 141.87288 -y 110.25816 -z 4
n -t 0.0 -s 76 -S UP -v circle -c blue -x 496.9071 -y 28.17893 -z 4
n -t 0.0 -s 38 -S UP -v circle -c blue -x 69.84609 -y 84.88053 -z 4
n -t 0.0 -s 77 -S UP -v circle -c blue -x 329.89636 -y 427.53287 -z 4
n -t 0.0 -s 78 -S UP -v circle -c blue -x 34.08611 -y 498.5399 -z 4
n -t 0.0 -s 4 -S UP -v circle -c red -x 223.21742 -y 154.0193 -z 4
n -t 0.0 -s 9 -S UP -v circle -c blue -x 470.15396 -y 311.72394 -z 4
n -t 0.0 -s 19 -S UP -v circle -c blue -x 498.40952 -y 61.66291 -z 4
n -t 0.0 -s 39 -S UP -v circle -c blue -x 46.6446 -y 402.76334 -z 4
n -t 0.0 -s 79 -S UP -v circle -c blue -x 475.35672 -y 361.27103 -z 4
n -t 0.0 -s 80 -S UP -v circle -c blue -x 227.07376 -y 174.86472 -z 4
n -t 0.0 -s 40 -S UP -v circle -c blue -x 146.06616 -y 306.1907 -z 4
n -t 0.0 -s 81 -S UP -v circle -c blue -x 227.42271 -y 168.3489 -z 4
n -t 0.0 -s 82 -S UP -v circle -c blue -x 467.42847 -y 186.82567 -z 4
n -t 0.0 -s 20 -S UP -v circle -c blue -x 384.1076 -y 447.57883 -z 4
n -t 0.0 -s 41 -S UP -v circle -c blue -x 126.216354 -y 317.62323 -z 4
n -t 0.0 -s 83 -S UP -v circle -c blue -x 235.64755 -y 104.6094 -z 4
n -t 0.0 -s 84 -S UP -v circle -c blue -x 249.96854 -y 163.19168 -z 4
n -t 0.0 -s 42 -S UP -v circle -c blue -x 450.75388 -y 165.91069 -z 4
n -t 0.0 -s 85 -S UP -v circle -c blue -x 304.36322 -y 176.31837 -z 4
n -t 0.0 -s 86 -S UP -v circle -c blue -x 258.03558 -y 211.1291 -z 4
n -t 0.0 -s 10 -S UP -v circle -c blue -x 166.06358 -y 452.8861 -z 4
n -t 0.0 -s 21 -S UP -v circle -c blue -x 154.23387 -y 11.344194 -z 4
n -t 0.0 -s 43 -S UP -v circle -c blue -x 437.48257 -y 1.2464821 -z 4
n -t 0.0 -s 87 -S UP -v circle -c blue -x 358.28976 -y 91.003 -z 4
n -t 0.0 -s 88 -S UP -v circle -c blue -x 94.79102 -y 241.79042 -z 4
n -t 0.0 -s 44 -S UP -v circle -c blue -x 355.3397 -y 88.3275 -z 4
n -t 0.0 -s 89 -S UP -v circle -c blue -x 395.3892 -y 246.81007 -z 4
n -t 0.0 -s 90 -S UP -v circle -c blue -x 68.71933 -y 194.73354 -z 4
n -t 0.0 -s 22 -S UP -v circle -c blue -x 332.52982 -y 267.3407 -z 4
n -t 0.0 -s 45 -S UP -v circle -c blue -x 388.52216 -y 448.92166 -z 4
n -t 0.0 -s 91 -S UP -v circle -c blue -x 87.080956 -y 406.99783 -z 4
n -t 0.0 -s 92 -S UP -v circle -c blue -x 291.18463 -y 34.04969 -z 4
n -t 0.0 -s 46 -S UP -v circle -c blue -x 40.52192 -y 119.04707 -z 4
n -t 0.0 -s 93 -S UP -v circle -c blue -x 70.25996 -y 155.2191 -z 4
n -t 0.0 -s 94 -S UP -v circle -c blue -x 329.39246 -y 405.9195 -z 4
n -t 0.0 -s 2 -S UP -v circle -c red -x 109.41094 -y 259.73328 -z 4
n -t 0.0 -s 5 -S UP -v circle -c red -x 278.24805 -y 498.70428 -z 4
n -t 0.0 -s 11 -S UP -v circle -c blue -x 62.553467 -y 387.79126 -z 4
n -t 0.0 -s 23 -S UP -v circle -c blue -x 480.16953 -y 454.86963 -z 4
n -t 0.0 -s 47 -S UP -v circle -c blue -x 30.804516 -y 411.95667 -z 4
n -t 0.0 -s 95 -S UP -v circle -c blue -x 346.54816 -y 488.28076 -z 4
n -t 0.0 -s 96 -S UP -v circle -c blue -x 174.469 -y 367.78726 -z 4
n -t 0.0 -s 48 -S UP -v circle -c blue -x 251.11809 -y 64.44562 -z 4
n -t 0.0 -s 97 -S UP -v circle -c blue -x 296.72565 -y 326.1688 -z 4
n -t 0.0 -s 98 -S UP -v circle -c blue -x 187.53815 -y 172.76373 -z 4
n -t 0.0 -s 24 -S UP -v circle -c blue -x 190.3556 -y 58.398754 -z 4
n -t 0.0 -s 49 -S UP -v circle -c blue -x 162.038 -y 168.21182 -z 4
n -t 0.0 -s 99 -S UP -v circle -c blue -x 140.63173 -y 459.09845 -z 4
n -t 0.0 -s 100 -S UP -v circle -c blue -x 418.55313 -y 135.7385 -z 4
n -t 0.0 -s 50 -S UP -v circle -c blue -x 202.44464 -y 275.39478 -z 4
n -t 0.0 -s 101 -S UP -v circle -c blue -x 131.73582 -y 92.65423 -z 4
n -t 0.0 -s 102 -S UP -v circle -c blue -x 406.04877 -y 28.69907 -z 4
n -t 0.0 -s 12 -S UP -v circle -c blue -x 7.1351824 -y 345.08838 -z 4
n -t 0.0 -s 25 -S UP -v circle -c blue -x 141.38055 -y 385.70987 -z 4
n -t 0.0 -s 51 -S UP -v circle -c blue -x 259.3903 -y 463.76062 -z 4
n -t 0.0 -s 103 -S UP -v circle -c blue -x 301.23083 -y 333.8876 -z 4
n -t 0.0 -s 104 -S UP -v circle -c blue -x 249.69998 -y 277.78906 -z 4
n -t 0.0 -s 52 -S UP -v circle -c blue -x 467.87073 -y 372.0211 -z 4
n -t 0.0 -s 105 -S UP -v circle -c blue -x 237.50777 -y 2.3872554 -z 4
n -t 0.0 -s 106 -S UP -v circle -c blue -x 351.30182 -y 231.76482 -z 4
n -t 0.0 -s 26 -S UP -v circle -c blue -x 5.22235 -y 33.68473 -z 4
n -t 0.0 -s 53 -S UP -v circle -c blue -x 269.2956 -y 51.041454 -z 4
n -t 0.0 -s 107 -S UP -v circle -c blue -x 55.284172 -y 174.36377 -z 4
n -t 0.0 -s 108 -S UP -v circle -c blue -x 279.17657 -y 75.977715 -z 4
n -t 0.0 -s 54 -S UP -v circle -c blue -x 327.86038 -y 413.16397 -z 4
n -t 0.0 -s 109 -S UP -v circle -c blue -x 124.96668 -y 427.9198 -z 4
n -t 0.0 -s 110 -S UP -v circle -c blue -x 472.64172 -y 205.26099 -z 4
n -t 0.0 -s 6 -S UP -v circle -c red -x 154.73247 -y 427.58392 -z 4
n -t 0.0 -s 13 -S UP -v circle -c blue -x 168.26874 -y 49.36415 -z 4
n -t 0.0 -s 27 -S UP -v circle -c blue -x 295.59146 -y 49.485325 -z 4
n -t 0.0 -s 55 -S UP -v circle -c blue -x 244.92458 -y 429.44406 -z 4
n -t 0.0 -s 111 -S UP -v circle -c blue -x 70.95429 -y 461.81836 -z 4
n -t 0.0 -s 112 -S UP -v circle -c blue -x 49.561916 -y 287.76538 -z 4
n -t 0.0 -s 56 -S UP -v circle -c blue -x 170.0708 -y 347.77737 -z 4
n -t 0.0 -s 113 -S UP -v circle -c blue -x 429.90143 -y 395.81326 -z 4
n -t 0.0 -s 114 -S UP -v circle -c blue -x 354.61237 -y 336.68173 -z 4
n -t 0.0 -s 28 -S UP -v circle -c blue -x 170.32239 -y 145.62166 -z 4
n -t 0.0 -s 57 -S UP -v circle -c blue -x 14.640003 -y 375.60892 -z 4
n -t 0.0 -s 115 -S UP -v circle -c blue -x 382.25345 -y 220.25368 -z 4
n -t 0.0 -s 116 -S UP -v circle -c blue -x 218.09859 -y 211.91644 -z 4
n -t 0.0 -s 58 -S UP -v circle -c blue -x 485.1257 -y 1.3484359 -z 4
n -t 0.0 -s 117 -S UP -v circle -c blue -x 226.88577 -y 68.18825 -z 4
n -t 0.0 -s 118 -S UP -v circle -c blue -x 25.335402 -y 445.33682 -z 4
n -t 0.0 -s 14 -S UP -v circle -c blue -x 23.873747 -y 451.5571 -z 4
n -t 0.0 -s 29 -S UP -v circle -c blue -x 144.99123 -y 100.43108 -z 4
n -t 0.0 -s 59 -S UP -v circle -c blue -x 273.9466 -y 443.8343 -z 4
n -t 0.0 -s 119 -S UP -v circle -c blue -x 377.09262 -y 311.2388 -z 4
n -t 0.0 -s 120 -S UP -v circle -c blue -x 300.9614 -y 84.55971 -z 4
n -t 0.0 -s 60 -S UP -v circle -c blue -x 276.6697 -y 171.23094 -z 4
n -t 0.0 -s 121 -S UP -v circle -c blue -x 382.5987 -y 187.4308 -z 4
n -t 0.0 -s 122 -S UP -v circle -c blue -x 228.35573 -y 86.98115 -z 4
n -t 0.0 -s 30 -S UP -v circle -c blue -x 150.25592 -y 323.19803 -z 4
n -t 0.0 -s 61 -S UP -v circle -c blue -x 407.55267 -y 62.615513 -z 4
n -t 0.0 -s 123 -S UP -v circle -c blue -x 366.25662 -y 315.99872 -z 4
n -t 0.0 -s 124 -S UP -v circle -c blue -x 74.68083 -y 240.59439 -z 4
n -t 0.0 -s 62 -S UP -v circle -c blue -x 481.3209 -y 445.5576 -z 4
n -t 0.0 -s 125 -S UP -v circle -c blue -x 243.63289 -y 31.646698 -z 4
n -t 0.0 -s 126 -S UP -v circle -c blue -x 311.07614 -y 206.05731 -z 4
n -t 0.06494211 -s 136 -S UP -v circle -c blue -x 215.67632 -y 307.52472 -z 4
n -t 0.08115962 -s 50 -S UP -v circle -c blue -x 202.93018 -y 276.50897 -z 4
n -t 0.08865824 -s 130 -S UP -v circle -c blue -x 252.10904 -y 472.57697 -z 4
n -t 0.1260183 -s 116 -S UP -v circle -c blue -x 219.75629 -y 210.66423 -z 4
n -t 0.14067891 -s 21 -S UP -v circle -c blue -x 154.40717 -y 10.383739 -z 4
n -t 0.16503042 -s 111 -S UP -v circle -c blue -x 67.69131 -y 462.09 -z 4
n -t 0.2371065 -s 79 -S UP -v circle -c blue -x 475.0312 -y 364.515 -z 4
n -t 0.2905656 -s 58 -S UP -v circle -c blue -x 481.86105 -y 2.5937908 -z 4
n -t 0.33438364 -s 129 -S UP -v circle -c blue -x 47.20427 -y 22.457075 -z 4
n -t 0.39920014 -s 31 -S UP -v circle -c blue -x 78.285614 -y 217.39806 -z 4
n -t 0.47412714 -s 124 -S UP -v circle -c blue -x 72.197395 -y 244.4736 -z 4
n -t 0.57369787 -s 70 -S UP -v circle -c blue -x 310.23874 -y 145.87129 -z 4
n -t 0.8270136 -s 118 -S UP -v circle -c blue -x 20.861313 -y 454.04196 -z 4
n -t 1.105421 -s 45 -S UP -v circle -c blue -x 373.50388 -y 448.36996 -z 4
n -t 1.1439188 -s 124 -S UP -v circle -c blue -x 64.85194 -y 241.1276 -z 4
n -t 1.1582134 -s 28 -S UP -v circle -c blue -x 189.02892 -y 134.6501 -z 4
n -t 1.2013035 -s 71 -S UP -v circle -c blue -x 32.771656 -y 148.68417 -z 4
n -t 1.233399 -s 87 -S UP -v circle -c blue -x 361.3295 -y 85.32257 -z 4
n -t 1.2342255 -s 124 -S UP -v circle -c blue -x 65.897095 -y 241.44403 -z 4
n -t 1.3360927 -s 144 -S UP -v circle -c blue -x 273.76144 -y 276.99203 -z 4
n -t 1.4149963 -s 41 -S UP -v circle -c blue -x 131.98952 -y 293.2502 -z 4
n -t 1.4202104 -s 28 -S UP -v circle -c blue -x 190.87773 -y 132.43779 -z 4
n -t 1.6554399 -s 116 -S UP -v circle -c blue -x 242.43253 -y 190.21748 -z 4
n -t 1.709081 -s 105 -S UP -v circle -c blue -x 240.19504 -y 30.726656 -z 4
n -t 1.9562409 -s 12 -S UP -v circle -c blue -x 28.61828 -y 325.4521 -z 4
n -t 2.0063453 -s 74 -S UP -v circle -c blue -x 270.29126 -y 279.2582 -z 4
n -t 2.021311 -s 144 -S UP -v circle -c blue -x 263.72345 -y 284.53732 -z 4
n -t 2.1052585 -s 13 -S UP -v circle -c blue -x 186.98265 -y 36.21809 -z 4
n -t 2.1172395 -s 80 -S UP -v circle -c blue -x 228.39742 -y 186.63928 -z 4
n -t 2.179099 -s 17 -S UP -v circle -c blue -x 332.8365 -y 113.8436 -z 4
n -t 2.1997657 -s 77 -S UP -v circle -c blue -x 326.54413 -y 439.17282 -z 4
n -t 2.2373946 -s 126 -S UP -v circle -c blue -x 318.35324 -y 177.68047 -z 4
n -t 2.2672439 -s 114 -S UP -v circle -c blue -x 366.01517 -y 318.7897 -z 4
n -t 2.2882838 -s 38 -S UP -v circle -c blue -x 61.582626 -y 76.295685 -z 4
n -t 2.408594 -s 128 -S UP -v circle -c blue -x 64.80175 -y 275.022 -z 4
n -t 2.6744168 -s 38 -S UP -v circle -c blue -x 56.60645 -y 70.97925 -z 4
n -t 2.727744 -s 21 -S UP -v circle -c blue -x 194.54808 -y 13.401996 -z 4
n -t 2.9458072 -s 14 -S UP -v circle -c blue -x 17.17028 -y 401.72153 -z 4
n -t 3.0343895 -s 143 -S UP -v circle -c blue -x 263.30624 -y 418.87048 -z 4
n -t 3.2065783 -s 109 -S UP -v circle -c blue -x 176.70561 -y 402.2833 -z 4
n -t 3.2330894 -s 142 -S UP -v circle -c blue -x 338.9045 -y 492.53558 -z 4
n -t 3.2648911 -s 51 -S UP -v circle -c blue -x 221.6132 -y 437.63266 -z 4
n -t 3.270916 -s 90 -S UP -v circle -c blue -x 70.08488 -y 254.37405 -z 4
n -t 3.2894447 -s 85 -S UP -v circle -c blue -x 369.98773 -y 178.43971 -z 4
n -t 3.364479 -s 137 -S UP -v circle -c blue -x 195.0936 -y 259.36197 -z 4
n -t 3.463117 -s 147 -S UP -v circle -c blue -x 240.58752 -y 451.30408 -z 4
n -t 3.5729878 -s 142 -S UP -v circle -c blue -x 345.20343 -y 490.3869 -z 4
n -t 3.6036742 -s 74 -S UP -v circle -c blue -x 250.25677 -y 269.65787 -z 4
n -t 3.6794245 -s 39 -S UP -v circle -c blue -x 67.25078 -y 359.4268 -z 4
n -t 3.8147836 -s 24 -S UP -v circle -c blue -x 244.71884 -y 53.7607 -z 4
n -t 3.8710198 -s 78 -S UP -v circle -c blue -x 48.661564 -y 473.58237 -z 4
n -t 4.010634 -s 116 -S UP -v circle -c blue -x 219.44757 -y 180.62459 -z 4
n -t 4.047111 -s 104 -S UP -v circle -c blue -x 235.90714 -y 302.23825 -z 4
n -t 4.1418166 -s 21 -S UP -v circle -c blue -x 201.04076 -y 33.05755 -z 4
n -t 4.157885 -s 104 -S UP -v circle -c blue -x 236.10757 -y 301.9785 -z 4
n -t 4.180738 -s 100 -S UP -v circle -c blue -x 361.40765 -y 171.91608 -z 4
n -t 4.2087636 -s 26 -S UP -v circle -c blue -x 72.005005 -y 30.924692 -z 4
n -t 4.215892 -s 20 -S UP -v circle -c blue -x 372.33893 -y 459.02478 -z 4
n -t 4.358388 -s 59 -S UP -v circle -c blue -x 194.1553 -y 474.68048 -z 4
n -t 4.4718156 -s 19 -S UP -v circle -c blue -x 456.54877 -y 41.193775 -z 4
n -t 4.487061 -s 86 -S UP -v circle -c blue -x 250.72327 -y 213.85135 -z 4
n -t 4.4926095 -s 12 -S UP -v circle -c blue -x 32.42465 -y 309.97772 -z 4
n -t 4.4939365 -s 59 -S UP -v circle -c blue -x 195.71983 -y 476.39114 -z 4
n -t 4.5173097 -s 44 -S UP -v circle -c blue -x 335.949 -y 99.60619 -z 4
n -t 4.609464 -s 63 -S UP -v circle -c blue -x 188.32045 -y 473.47736 -z 4
n -t 4.6466866 -s 62 -S UP -v circle -c blue -x 428.51617 -y 439.0305 -z 4
n -t 4.7188516 -s 69 -S UP -v circle -c blue -x 207.68797 -y 91.33639 -z 4
n -t 4.907079 -s 146 -S UP -v circle -c blue -x 151.7923 -y 241.6622 -z 4
n -t 4.9258385 -s 135 -S UP -v circle -c blue -x 86.5536 -y 102.94226 -z 4
n -t 4.9705176 -s 93 -S UP -v circle -c blue -x 43.81319 -y 230.17043 -z 4
n -t 5.00928 -s 117 -S UP -v circle -c blue -x 239.80873 -y 0.88616806 -z 4
n -t 5.036054 -s 84 -S UP -v circle -c blue -x 269.7455 -y 179.33382 -z 4
n -t 5.060443 -s 21 -S UP -v circle -c blue -x 214.34561 -y 35.398827 -z 4
n -t 5.4338236 -s 72 -S UP -v circle -c blue -x 330.12552 -y 378.12936 -z 4
n -t 5.435624 -s 128 -S UP -v circle -c blue -x 81.76007 -y 273.5978 -z 4
n -t 5.53291 -s 24 -S UP -v circle -c blue -x 257.64474 -y 52.87817 -z 4
n -t 5.6087456 -s 113 -S UP -v circle -c blue -x 463.37085 -y 429.9953 -z 4
n -t 5.7150164 -s 71 -S UP -v circle -c blue -x 24.748976 -y 157.1149 -z 4
n -t 5.7671137 -s 113 -S UP -v circle -c blue -x 464.31525 -y 431.5093 -z 4
n -t 5.800533 -s 77 -S UP -v circle -c blue -x 328.65976 -y 419.8775 -z 4
n -t 6.0026674 -s 86 -S UP -v circle -c blue -x 269.6225 -y 214.24554 -z 4
n -t 6.003124 -s 62 -S UP -v circle -c blue -x 433.68027 -y 420.62158 -z 4
n -t 6.03375 -s 24 -S UP -v circle -c blue -x 263.95807 -y 55.044273 -z 4
n -t 6.111557 -s 70 -S UP -v circle -c blue -x 269.26102 -y 93.72535 -z 4
n -t 6.1190724 -s 99 -S UP -v circle -c blue -x 163.00978 -y 460.77917 -z 4
n -t 6.1359277 -s 114 -S UP -v circle -c blue -x 311.98203 -y 360.7194 -z 4
n -t 6.210695 -s 137 -S UP -v circle -c blue -x 228.42021 -y 238.65038 -z 4
n -t 6.254079 -s 44 -S UP -v circle -c blue -x 331.63937 -y 122.83615 -z 4
n -t 6.3694797 -s 139 -S UP -v circle -c blue -x 262.2823 -y 69.78369 -z 4
n -t 6.4531612 -s 89 -S UP -v circle -c blue -x 280.0993 -y 227.3393 -z 4
n -t 6.667049 -s 34 -S UP -v circle -c blue -x 244.7079 -y 129.53415 -z 4
n -t 6.7692213 -s 139 -S UP -v circle -c blue -x 265.55392 -y 74.16315 -z 4
n -t 6.8002553 -s 59 -S UP -v circle -c blue -x 182.04019 -y 440.8702 -z 4
n -t 6.8489985 -s 114 -S UP -v circle -c blue -x 311.60825 -y 350.4629 -z 4
n -t 6.9481273 -s 125 -S UP -v circle -c blue -x 245.68571 -y 146.03378 -z 4
n -t 6.9912486 -s 95 -S UP -v circle -c blue -x 313.00146 -y 467.60645 -z 4
n -t 6.995159 -s 82 -S UP -v circle -c blue -x 334.50436 -y 223.61945 -z 4
n -t 7.117917 -s 137 -S UP -v circle -c blue -x 219.11327 -y 224.82278 -z 4
n -t 7.186785 -s 14 -S UP -v circle -c blue -x 1.4978062 -y 393.19193 -z 4
n -t 7.2326894 -s 85 -S UP -v circle -c blue -x 429.207 -y 127.939766 -z 4
n -t 7.3033776 -s 89 -S UP -v circle -c blue -x 266.79477 -y 226.69029 -z 4
n -t 7.4302397 -s 22 -S UP -v circle -c blue -x 293.0751 -y 279.58408 -z 4
n -t 7.5629544 -s 51 -S UP -v circle -c blue -x 223.26158 -y 434.4278 -z 4
n -t 7.601891 -s 113 -S UP -v circle -c blue -x 474.296 -y 443.83017 -z 4
n -t 7.621317 -s 57 -S UP -v circle -c blue -x 15.6393175 -y 393.03696 -z 4
n -t 7.7888947 -s 114 -S UP -v circle -c blue -x 315.70898 -y 332.20227 -z 4
n -t 7.9280057 -s 142 -S UP -v circle -c blue -x 355.36807 -y 454.57108 -z 4
n -t 7.943188 -s 150 -S UP -v circle -c blue -x 234.9878 -y 474.74673 -z 4
n -t 7.9466896 -s 102 -S UP -v circle -c blue -x 400.6188 -y 87.73471 -z 4
n -t 8.08879 -s 27 -S UP -v circle -c blue -x 213.53984 -y 109.91964 -z 4
n -t 8.178539 -s 30 -S UP -v circle -c blue -x 141.64784 -y 297.38892 -z 4
n -t 8.223998 -s 45 -S UP -v circle -c blue -x 405.08865 -y 392.3714 -z 4
n -t 8.357128 -s 70 -S UP -v circle -c blue -x 281.3466 -y 63.865932 -z 4
n -t 8.475315 -s 146 -S UP -v circle -c blue -x 162.62567 -y 272.01477 -z 4
n -t 8.531306 -s 30 -S UP -v circle -c blue -x 136.37646 -y 301.78506 -z 4
n -t 8.542589 -s 79 -S UP -v circle -c blue -x 473.0279 -y 345.02704 -z 4
n -t 8.780655 -s 27 -S UP -v circle -c blue -x 214.48404 -y 110.23423 -z 4
n -t 8.8438015 -s 13 -S UP -v circle -c blue -x 133.83293 -y 36.19032 -z 4