# Trace file generated by Jist/Swans Version 1.0.6. at Fri Jul 26 18:36:27 BRT 2013
V -t * -v 1.0a5 -a 0
W -t * -x 410 -y 410
A -t * -n 1 -p 0 -o 0xffffffff -c 31 -a 1
A -t * -h 1 -m 2147483647 -s 0
n -t 0.0 -s 1 -S UP -v circle -c red -x 150.3489 -y 357.71707 -z 4
n -t 0.0 -s 2 -S UP -v circle -c red -x 255.6183 -y 373.90616 -z 4
n -t 0.0 -s 3 -S UP -v circle -c red -x 426.41043 -y 129.10023 -z 4
n -t 0.0 -s 4 -S UP -v circle -c red -x 451.97433 -y 289.86893 -z 4
n -t 0.0 -s 5 -S UP -v circle -c red -x 471.64227 -y 331.6785 -z 4
n -t 0.0 -s 6 -S UP -v circle -c red -x 264.03824 -y 86.205635 -z 4
n -t 0.0 -s 7 -S UP -v circle -c red -x 86.51942 -y 59.345963 -z 4
n -t 0.0 -s 8 -S UP -v circle -c red -x 166.75723 -y 299.56882 -z 4
n -t 0.0 -s 9 -S UP -v circle -c blue -x 158.11623 -y 61.551987 -z 4
n -t 0.0 -s 10 -S UP -v circle -c blue -x 260.81326 -y 19.800365 -z 4
n -t 0.0 -s 11 -S UP -v circle -c blue -x 499.65292 -y 257.63074 -z 4
n -t 0.0 -s 12 -S UP -v circle -c blue -x 261.17792 -y 344.87158 -z 4
n -t 0.0 -s 13 -S UP -v circle -c blue -x 3.8220882 -y 429.16187 -z 4
n -t 0.0 -s 14 -S UP -v circle -c blue -x 495.33524 -y 50.07109 -z 4
n -t 0.0 -s 15 -S UP -v circle -c blue -x 66.77291 -y 345.59457 -z 4
n -t 0.0 -s 16 -S UP -v circle -c blue -x 169.81966 -y 99.60667 -z 4
n -t 0.0 -s 17 -S UP -v circle -c blue -x 274.7119 -y 22.408485 -z 4
n -t 0.0 -s 18 -S UP -v circle -c blue -x 343.92502 -y 430.66116 -z 4
n -t 0.0 -s 19 -S UP -v circle -c blue -x 103.15293 -y 326.87125 -z 4
n -t 0.0 -s 20 -S UP -v circle -c blue -x 106.20442 -y 427.08945 -z 4
n -t 0.0 -s 21 -S UP -v circle -c blue -x 438.52835 -y 52.83445 -z 4
n -t 0.0 -s 22 -S UP -v circle -c blue -x 332.40875 -y 440.4275 -z 4
n -t 0.0 -s 23 -S UP -v circle -c blue -x 445.20813 -y 6.5212846 -z 4
n -t 0.0 -s 24 -S UP -v circle -c blue -x 148.44925 -y 244.9632 -z 4
n -t 0.0 -s 25 -S UP -v circle -c blue -x 418.45306 -y 133.12167 -z 4
n -t 0.0 -s 26 -S UP -v circle -c blue -x 75.39257 -y 58.72935 -z 4
n -t 0.0 -s 27 -S UP -v circle -c blue -x 59.37782 -y 377.13834 -z 4
n -t 0.0 -s 28 -S UP -v circle -c blue -x 377.93552 -y 468.05377 -z 4
n -t 0.0 -s 29 -S UP -v circle -c blue -x 3.9818883 -y 95.41163 -z 4
n -t 0.0 -s 30 -S UP -v circle -c blue -x 416.70618 -y 246.55476 -z 4
n -t 0.0 -s 31 -S UP -v circle -c blue -x 130.5238 -y 22.883297 -z 4
n -t 0.0 -s 32 -S UP -v circle -c blue -x 447.50244 -y 14.207691 -z 4
n -t 0.0 -s 33 -S UP -v circle -c blue -x 252.20308 -y 49.408733 -z 4
n -t 0.0 -s 34 -S UP -v circle -c blue -x 157.53534 -y 284.51852 -z 4
n -t 0.0 -s 35 -S UP -v circle -c blue -x 392.95157 -y 477.9539 -z 4
n -t 0.0 -s 36 -S UP -v circle -c blue -x 456.163 -y 161.30579 -z 4
n -t 0.0 -s 37 -S UP -v circle -c blue -x 209.23573 -y 256.66684 -z 4
n -t 0.0 -s 38 -S UP -v circle -c blue -x 282.68927 -y 476.67694 -z 4
n -t 0.0 -s 39 -S UP -v circle -c blue -x 299.68097 -y 470.62753 -z 4
n -t 0.0 -s 40 -S UP -v circle -c blue -x 179.70547 -y 81.24298 -z 4
n -t 0.0 -s 41 -S UP -v circle -c blue -x 75.04323 -y 134.27696 -z 4
n -t 0.0 -s 42 -S UP -v circle -c blue -x 41.25026 -y 371.38916 -z 4
n -t 0.0 -s 43 -S UP -v circle -c blue -x 4.988134 -y 88.01809 -z 4
n -t 0.0 -s 44 -S UP -v circle -c blue -x 50.78003 -y 148.63753 -z 4
n -t 0.0 -s 45 -S UP -v circle -c blue -x 25.168865 -y 297.36392 -z 4
n -t 0.0 -s 46 -S UP -v circle -c blue -x 105.52785 -y 477.11456 -z 4
n -t 0.0 -s 47 -S UP -v circle -c blue -x 61.509193 -y 110.06615 -z 4
n -t 0.0 -s 48 -S UP -v circle -c blue -x 298.18472 -y 128.3801 -z 4
n -t 0.0 -s 49 -S UP -v circle -c blue -x 290.14673 -y 5.367488 -z 4
n -t 0.0 -s 50 -S UP -v circle -c blue -x 321.79156 -y 262.07227 -z 4
n -t 0.0 -s 51 -S UP -v circle -c blue -x 206.3415 -y 84.037094 -z 4
n -t 0.0 -s 52 -S UP -v circle -c blue -x 343.05264 -y 86.856125 -z 4
n -t 0.0 -s 53 -S UP -v circle -c blue -x 277.4244 -y 192.02402 -z 4
n -t 0.0 -s 54 -S UP -v circle -c blue -x 277.68106 -y 22.097319 -z 4
n -t 0.0 -s 55 -S UP -v circle -c blue -x 130.59709 -y 142.92955 -z 4
n -t 0.0 -s 56 -S UP -v circle -c blue -x 409.50592 -y 346.77277 -z 4
n -t 0.0 -s 57 -S UP -v circle -c blue -x 1.5895963 -y 433.28168 -z 4
n -t 0.0 -s 58 -S UP -v circle -c blue -x 44.493793 -y 480.8143 -z 4
n -t 0.0 -s 59 -S UP -v circle -c blue -x 193.75783 -y 112.70052 -z 4
n -t 0.0 -s 60 -S UP -v circle -c blue -x 339.07947 -y 14.993697 -z 4
n -t 0.0 -s 61 -S UP -v circle -c blue -x 366.5265 -y 241.07323 -z 4
n -t 0.0 -s 62 -S UP -v circle -c blue -x 7.726431 -y 250.40927 -z 4
n -t 0.0 -s 63 -S UP -v circle -c blue -x 157.95174 -y 104.093285 -z 4
n -t 0.0 -s 64 -S UP -v circle -c blue -x 301.83203 -y 56.633385 -z 4
n -t 0.0 -s 65 -S UP -v circle -c blue -x 417.83252 -y 463.937 -z 4
n -t 0.0 -s 66 -S UP -v circle -c blue -x 176.29623 -y 29.815228 -z 4
n -t 0.0 -s 67 -S UP -v circle -c blue -x 177.91328 -y 45.106888 -z 4
n -t 0.0 -s 68 -S UP -v circle -c blue -x 472.5495 -y 66.88479 -z 4
n -t 0.0 -s 69 -S UP -v circle -c blue -x 55.410892 -y 327.9184 -z 4
n -t 0.0 -s 70 -S UP -v circle -c blue -x 259.79514 -y 150.03783 -z 4
n -t 0.0 -s 71 -S UP -v circle -c blue -x 489.91135 -y 479.77603 -z 4
n -t 0.0 -s 72 -S UP -v circle -c blue -x 287.8085 -y 304.6521 -z 4
n -t 0.0 -s 73 -S UP -v circle -c blue -x 364.60846 -y 262.99954 -z 4
n -t 0.0 -s 74 -S UP -v circle -c blue -x 123.92926 -y 293.6317 -z 4
n -t 0.0 -s 75 -S UP -v circle -c blue -x 497.32233 -y 437.93335 -z 4
n -t 0.0 -s 76 -S UP -v circle -c blue -x 118.90769 -y 199.03284 -z 4
n -t 0.0 -s 77 -S UP -v circle -c blue -x 189.60309 -y 131.4979 -z 4
n -t 0.0 -s 78 -S UP -v circle -c blue -x 476.97366 -y 416.99918 -z 4
n -t 0.0 -s 79 -S UP -v circle -c blue -x 251.79523 -y 269.0053 -z 4
n -t 0.0 -s 80 -S UP -v circle -c blue -x 86.78612 -y 421.0414 -z 4
n -t 0.0 -s 81 -S UP -v circle -c blue -x 334.9499 -y 305.4394 -z 4
n -t 0.0 -s 82 -S UP -v circle -c blue -x 304.621 -y 90.217384 -z 4
n -t 0.0 -s 83 -S UP -v circle -c blue -x 177.10083 -y 30.646683 -z 4
n -t 0.0 -s 84 -S UP -v circle -c blue -x 308.03723 -y 228.68823 -z 4
n -t 0.0 -s 85 -S UP -v circle -c blue -x 340.27844 -y 229.85378 -z 4
n -t 0.0 -s 86 -S UP -v circle -c blue -x 157.03076 -y 139.51105 -z 4
n -t 0.0 -s 87 -S UP -v circle -c blue -x 277.77588 -y 330.14783 -z 4
n -t 0.0 -s 88 -S UP -v circle -c blue -x 95.99012 -y 143.62779 -z 4
n -t 0.0 -s 89 -S UP -v circle -c blue -x 129.09052 -y 158.25668 -z 4
n -t 0.0 -s 90 -S UP -v circle -c blue -x 400.1844 -y 132.27174 -z 4
n -t 0.0 -s 91 -S UP -v circle -c blue -x 16.568094 -y 433.0523 -z 4
n -t 0.0 -s 92 -S UP -v circle -c blue -x 47.567757 -y 102.05907 -z 4
n -t 0.0 -s 93 -S UP -v circle -c blue -x 485.43884 -y 155.273 -z 4
n -t 0.0 -s 94 -S UP -v circle -c blue -x 473.82922 -y 383.68607 -z 4
n -t 0.0 -s 95 -S UP -v circle -c blue -x 33.45731 -y 479.30173 -z 4
n -t 0.0 -s 96 -S UP -v circle -c blue -x 25.24528 -y 41.412354 -z 4
n -t 0.0 -s 97 -S UP -v circle -c blue -x 261.9756 -y 229.4244 -z 4
n -t 0.0 -s 98 -S UP -v circle -c blue -x 50.343575 -y 287.56998 -z 4
n -t 0.0 -s 99 -S UP -v circle -c blue -x 414.67255 -y 282.4786 -z 4
n -t 0.0 -s 100 -S UP -v circle -c blue -x 293.91974 -y 437.5769 -z 4
n -t 0.0 -s 1 -S UP -v circle -c red -x 150.3489 -y 357.71707 -z 4
n -t 0.0 -s 100 -S UP -v circle -c blue -x 293.91974 -y 437.5769 -z 4
n -t 0.0 -s 3 -S UP -v circle -c red -x 426.41043 -y 129.10023 -z 4
n -t 0.0 -s 7 -S UP -v circle -c red -x 86.51942 -y 59.345963 -z 4
n -t 0.0 -s 99 -S UP -v circle -c blue -x 414.67255 -y 282.4786 -z 4
n -t 0.0 -s 15 -S UP -v circle -c blue -x 66.77291 -y 345.59457 -z 4
n -t 0.0 -s 31 -S UP -v circle -c blue -x 130.5238 -y 22.883297 -z 4
n -t 0.0 -s 63 -S UP -v circle -c blue -x 157.95174 -y 104.093285 -z 4
n -t 0.0 -s 64 -S UP -v circle -c blue -x 301.83203 -y 56.633385 -z 4
n -t 0.0 -s 32 -S UP -v circle -c blue -x 447.50244 -y 14.207691 -z 4
n -t 0.0 -s 65 -S UP -v circle -c blue -x 417.83252 -y 463.937 -z 4
n -t 0.0 -s 66 -S UP -v circle -c blue -x 176.29623 -y 29.815228 -z 4
n -t 0.0 -s 16 -S UP -v circle -c blue -x 169.81966 -y 99.60667 -z 4
n -t 0.0 -s 33 -S UP -v circle -c blue -x 252.20308 -y 49.408733 -z 4
n -t 0.0 -s 67 -S UP -v circle -c blue -x 177.91328 -y 45.106888 -z 4
n -t 0.0 -s 68 -S UP -v circle -c blue -x 472.5495 -y 66.88479 -z 4
n -t 0.0 -s 34 -S UP -v circle -c blue -x 157.53534 -y 284.51852 -z 4
n -t 0.0 -s 69 -S UP -v circle -c blue -x 55.410892 -y 327.9184 -z 4
n -t 0.0 -s 70 -S UP -v circle -c blue -x 259.79514 -y 150.03783 -z 4
n -t 0.0 -s 8 -S UP -v circle -c red -x 166.75723 -y 299.56882 -z 4
n -t 0.0 -s 17 -S UP -v circle -c blue -x 274.7119 -y 22.408485 -z 4
n -t 0.0 -s 35 -S UP -v circle -c blue -x 392.95157 -y 477.9539 -z 4
n -t 0.0 -s 71 -S UP -v circle -c blue -x 489.91135 -y 479.77603 -z 4
n -t 0.0 -s 72 -S UP -v circle -c blue -x 287.8085 -y 304.6521 -z 4
n -t 0.0 -s 36 -S UP -v circle -c blue -x 456.163 -y 161.30579 -z 4
n -t 0.0 -s 73 -S UP -v circle -c blue -x 364.60846 -y 262.99954 -z 4
n -t 0.0 -s 74 -S UP -v circle -c blue -x 123.92926 -y 293.6317 -z 4
n -t 0.0 -s 18 -S UP -v circle -c blue -x 343.92502 -y 430.66116 -z 4
n -t 0.0 -s 37 -S UP -v circle -c blue -x 209.23573 -y 256.66684 -z 4
n -t 0.0 -s 75 -S UP -v circle -c blue -x 497.32233 -y 437.93335 -z 4
n -t 0.0 -s 76 -S UP -v circle -c blue -x 118.90769 -y 199.03284 -z 4
n -t 0.0 -s 38 -S UP -v circle -c blue -x 282.68927 -y 476.67694 -z 4
n -t 0.0 -s 77 -S UP -v circle -c blue -x 189.60309 -y 131.4979 -z 4
n -t 0.0 -s 78 -S UP -v circle -c blue -x 476.97366 -y 416.99918 -z 4
n -t 0.0 -s 4 -S UP -v circle -c red -x 451.97433 -y 289.86893 -z 4
n -t 0.0 -s 9 -S UP -v circle -c blue -x 158.11623 -y 61.551987 -z 4
n -t 0.0 -s 98 -S UP -v circle -c blue -x 50.343575 -y 287.56998 -z 4
n -t 0.0 -s 19 -S UP -v circle -c blue -x 103.15293 -y 326.87125 -z 4
n -t 0.0 -s 39 -S UP -v circle -c blue -x 299.68097 -y 470.62753 -z 4
n -t 0.0 -s 79 -S UP -v circle -c blue -x 251.79523 -y 269.0053 -z 4
n -t 0.0 -s 80 -S UP -v circle -c blue -x 86.78612 -y 421.0414 -z 4
n -t 0.0 -s 40 -S UP -v circle -c blue -x 179.70547 -y 81.24298 -z 4
n -t 0.0 -s 81 -S UP -v circle -c blue -x 334.9499 -y 305.4394 -z 4
n -t 0.0 -s 82 -S UP -v circle -c blue -x 304.621 -y 90.217384 -z 4
n -t 0.0 -s 20 -S UP -v circle -c blue -x 106.20442 -y 427.08945 -z 4
n -t 0.0 -s 41 -S UP -v circle -c blue -x 75.04323 -y 134.27696 -z 4
n -t 0.0 -s 83 -S UP -v circle -c blue -x 177.10083 -y 30.646683 -z 4
n -t 0.0 -s 84 -S UP -v circle -c blue -x 308.03723 -y 228.68823 -z 4
n -t 0.0 -s 42 -S UP -v circle -c blue -x 41.25026 -y 371.38916 -z 4
n -t 0.0 -s 85 -S UP -v circle -c blue -x 340.27844 -y 229.85378 -z 4
n -t 0.0 -s 86 -S UP -v circle -c blue -x 157.03076 -y 139.51105 -z 4
n -t 0.0 -s 10 -S UP -v circle -c blue -x 260.81326 -y 19.800365 -z 4
n -t 0.0 -s 21 -S UP -v circle -c blue -x 438.52835 -y 52.83445 -z 4
n -t 0.0 -s 97 -S UP -v circle -c blue -x 261.9756 -y 229.4244 -z 4
n -t 0.0 -s 43 -S UP -v circle -c blue -x 4.988134 -y 88.01809 -z 4
n -t 0.0 -s 87 -S UP -v circle -c blue -x 277.77588 -y 330.14783 -z 4
n -t 0.0 -s 88 -S UP -v circle -c blue -x 95.99012 -y 143.62779 -z 4
n -t 0.0 -s 44 -S UP -v circle -c blue -x 50.78003 -y 148.63753 -z 4
n -t 0.0 -s 89 -S UP -v circle -c blue -x 129.09052 -y 158.25668 -z 4
n -t 0.0 -s 90 -S UP -v circle -c blue -x 400.1844 -y 132.27174 -z 4
n -t 0.0 -s 22 -S UP -v circle -c blue -x 332.40875 -y 440.4275 -z 4
n -t 0.0 -s 45 -S UP -v circle -c blue -x 25.168865 -y 297.36392 -z 4
n -t 0.0 -s 91 -S UP -v circle -c blue -x 16.568094 -y 433.0523 -z 4
n -t 0.0 -s 92 -S UP -v circle -c blue -x 47.567757 -y 102.05907 -z 4
n -t 0.0 -s 46 -S UP -v circle -c blue -x 105.52785 -y 477.11456 -z 4
n -t 0.0 -s 93 -S UP -v circle -c blue -x 485.43884 -y 155.273 -z 4
n -t 0.0 -s 94 -S UP -v circle -c blue -x 473.82922 -y 383.68607 -z 4
n -t 0.0 -s 2 -S UP -v circle -c red -x 255.6183 -y 373.90616 -z 4
n -t 0.0 -s 5 -S UP -v circle -c red -x 471.64227 -y 331.6785 -z 4
n -t 0.0 -s 96 -S UP -v circle -c blue -x 25.24528 -y 41.412354 -z 4
n -t 0.0 -s 11 -S UP -v circle -c blue -x 499.65292 -y 257.63074 -z 4
n -t 0.0 -s 23 -S UP -v circle -c blue -x 445.20813 -y 6.5212846 -z 4
n -t 0.0 -s 47 -S UP -v circle -c blue -x 61.509193 -y 110.06615 -z 4
n -t 0.0 -s 95 -S UP -v circle -c blue -x 33.45731 -y 479.30173 -z 4
n -t 0.0 -s 48 -S UP -v circle -c blue -x 298.18472 -y 128.3801 -z 4
n -t 0.0 -s 24 -S UP -v circle -c blue -x 148.44925 -y 244.9632 -z 4
n -t 0.0 -s 49 -S UP -v circle -c blue -x 290.14673 -y 5.367488 -z 4
n -t 0.0 -s 50 -S UP -v circle -c blue -x 321.79156 -y 262.07227 -z 4
n -t 0.0 -s 12 -S UP -v circle -c blue -x 261.17792 -y 344.87158 -z 4
n -t 0.0 -s 25 -S UP -v circle -c blue -x 418.45306 -y 133.12167 -z 4
n -t 0.0 -s 51 -S UP -v circle -c blue -x 206.3415 -y 84.037094 -z 4
n -t 0.0 -s 52 -S UP -v circle -c blue -x 343.05264 -y 86.856125 -z 4
n -t 0.0 -s 26 -S UP -v circle -c blue -x 75.39257 -y 58.72935 -z 4
n -t 0.0 -s 53 -S UP -v circle -c blue -x 277.4244 -y 192.02402 -z 4
n -t 0.0 -s 54 -S UP -v circle -c blue -x 277.68106 -y 22.097319 -z 4
n -t 0.0 -s 6 -S UP -v circle -c red -x 264.03824 -y 86.205635 -z 4
n -t 0.0 -s 13 -S UP -v circle -c blue -x 3.8220882 -y 429.16187 -z 4
n -t 0.0 -s 27 -S UP -v circle -c blue -x 59.37782 -y 377.13834 -z 4
n -t 0.0 -s 55 -S UP -v circle -c blue -x 130.59709 -y 142.92955 -z 4
n -t 0.0 -s 56 -S UP -v circle -c blue -x 409.50592 -y 346.77277 -z 4
n -t 0.0 -s 28 -S UP -v circle -c blue -x 377.93552 -y 468.05377 -z 4
n -t 0.0 -s 57 -S UP -v circle -c blue -x 1.5895963 -y 433.28168 -z 4
n -t 0.0 -s 58 -S UP -v circle -c blue -x 44.493793 -y 480.8143 -z 4
n -t 0.0 -s 14 -S UP -v circle -c blue -x 495.33524 -y 50.07109 -z 4
n -t 0.0 -s 29 -S UP -v circle -c blue -x 3.9818883 -y 95.41163 -z 4
n -t 0.0 -s 59 -S UP -v circle -c blue -x 193.75783 -y 112.70052 -z 4
n -t 0.0 -s 60 -S UP -v circle -c blue -x 339.07947 -y 14.993697 -z 4
n -t 0.0 -s 30 -S UP -v circle -c blue -x 416.70618 -y 246.55476 -z 4
n -t 0.0 -s 61 -S UP -v circle -c blue -x 366.5265 -y 241.07323 -z 4
n -t 0.0 -s 62 -S UP -v circle -c blue -x 7.726431 -y 250.40927 -z 4
n -t 0.06835206 -s 50 -S UP -v circle -c blue -x 320.97464 -y 262.97214 -z 4
n -t 0.06906247 -s 21 -S UP -v circle -c blue -x 439.4995 -y 52.931183 -z 4
n -t 0.24331525 -s 58 -S UP -v circle -c blue -x 47.563152 -y 479.14462 -z 4
n -t 0.32268372 -s 31 -S UP -v circle -c blue -x 134.33534 -y 27.58057 -z 4
n -t 0.5344976 -s 87 -S UP -v circle -c blue -x 272.90414 -y 325.93198 -z 4
n -t 0.72535115 -s 86 -S UP -v circle -c blue -x 151.36847 -y 144.87938 -z 4
n -t 1.1242633 -s 57 -S UP -v circle -c blue -x 5.0210805 -y 417.12512 -z 4
n -t 1.140422 -s 77 -S UP -v circle -c blue -x 199.74481 -y 124.87433 -z 4
n -t 1.3533204 -s 61 -S UP -v circle -c blue -x 348.71082 -y 226.22751 -z 4
n -t 1.3701979 -s 80 -S UP -v circle -c blue -x 87.115364 -y 432.88556 -z 4
n -t 1.4004304 -s 28 -S UP -v circle -c blue -x 371.05325 -y 488.6194 -z 4
n -t 1.4127961 -s 77 -S UP -v circle -c blue -x 198.30482 -y 121.45797 -z 4
n -t 1.4209186 -s 76 -S UP -v circle -c blue -x 145.44879 -y 192.53194 -z 4
n -t 1.5339128 -s 17 -S UP -v circle -c blue -x 276.863 -y 48.99742 -z 4
n -t 1.6079202 -s 44 -S UP -v circle -c blue -x 61.211643 -y 128.77829 -z 4
n -t 1.7922099 -s 71 -S UP -v circle -c blue -x 477.31104 -y 477.38217 -z 4
n -t 1.7972957 -s 13 -S UP -v circle -c blue -x 14.705151 -y 409.0475 -z 4
n -t 1.810457 -s 94 -S UP -v circle -c blue -x 483.5377 -y 349.44775 -z 4
n -t 1.8883805 -s 99 -S UP -v circle -c blue -x 426.58008 -y 301.5 -z 4
n -t 2.051527 -s 45 -S UP -v circle -c blue -x 33.984367 -y 285.19266 -z 4
n -t 2.259371 -s 41 -S UP -v circle -c blue -x 54.836365 -y 149.07748 -z 4
n -t 2.5216832 -s 31 -S UP -v circle -c blue -x 112.18576 -y 10.335231 -z 4
n -t 2.549438 -s 39 -S UP -v circle -c blue -x 344.06265 -y 452.38098 -z 4
n -t 2.584866 -s 30 -S UP -v circle -c blue -x 415.62466 -y 206.74832 -z 4
n -t 2.7512312 -s 79 -S UP -v circle -c blue -x 248.54007 -y 268.8225 -z 4
n -t 2.9297576 -s 78 -S UP -v circle -c blue -x 454.0296 -y 395.47748 -z 4
n -t 2.9537134 -s 74 -S UP -v circle -c blue -x 87.84836 -y 297.33533 -z 4
n -t 2.9823227 -s 33 -S UP -v circle -c blue -x 300.90936 -y 37.158962 -z 4
n -t 3.0093293 -s 78 -S UP -v circle -c blue -x 453.26035 -y 394.1331 -z 4
n -t 3.1652765 -s 51 -S UP -v circle -c blue -x 176.4267 -y 73.92204 -z 4
n -t 3.3333488 -s 33 -S UP -v circle -c blue -x 298.61624 -y 39.49615 -z 4
n -t 3.7672765 -s 22 -S UP -v circle -c blue -x 347.8964 -y 402.12985 -z 4
n -t 3.8281736 -s 90 -S UP -v circle -c blue -x 346.66925 -y 158.63434 -z 4
n -t 3.8806524 -s 91 -S UP -v circle -c blue -x 5.79261 -y 462.32916 -z 4
n -t 3.9730296 -s 91 -S UP -v circle -c blue -x 5.58133 -y 464.06128 -z 4
n -t 4.0856657 -s 57 -S UP -v circle -c blue -x 4.166611 -y 410.52487 -z 4
n -t 4.147716 -s 78 -S UP -v circle -c blue -x 469.3011 -y 404.1346 -z 4
n -t 4.168033 -s 84 -S UP -v circle -c blue -x 305.62558 -y 153.69093 -z 4
n -t 4.3247805 -s 70 -S UP -v circle -c blue -x 263.43768 -y 153.79868 -z 4
n -t 4.4174595 -s 37 -S UP -v circle -c blue -x 237.40982 -y 302.94638 -z 4
n -t 4.836963 -s 81 -S UP -v circle -c blue -x 255.58217 -y 271.43777 -z 4
n -t 5.0213127 -s 80 -S UP -v circle -c blue -x 54.382824 -y 391.84848 -z 4
n -t 5.1213827 -s 19 -S UP -v circle -c blue -x 75.53278 -y 364.40036 -z 4
n -t 5.1657367 -s 26 -S UP -v circle -c blue -x 21.604288 -y 114.21361 -z 4
n -t 5.236562 -s 75 -S UP -v circle -c blue -x 399.52856 -y 422.54456 -z 4
n -t 5.4182067 -s 80 -S UP -v circle -c blue -x 55.44818 -y 384.64487 -z 4
n -t 5.4725213 -s 38 -S UP -v circle -c blue -x 294.22327 -y 473.68512 -z 4
n -t 5.68884 -s 59 -S UP -v circle -c blue -x 169.30559 -y 78.81435 -z 4
n -t 5.774421 -s 96 -S UP -v circle -c blue -x 43.049988 -y 11.201034 -z 4
n -t 6.6072493 -s 47 -S UP -v circle -c blue -x 92.45471 -y 26.93949 -z 4
n -t 6.739366 -s 34 -S UP -v circle -c blue -x 154.40234 -y 210.32732 -z 4
n -t 6.8689027 -s 31 -S UP -v circle -c blue -x 146.15831 -y 54.439026 -z 4
n -t 7.00138 -s 17 -S UP -v circle -c blue -x 318.78534 -y 47.00185 -z 4
n -t 7.023384 -s 81 -S UP -v circle -c blue -x 260.53134 -y 298.68124 -z 4
n -t 7.194506 -s 70 -S UP -v circle -c blue -x 265.31982 -y 154.67816 -z 4
n -t 7.3043013 -s 96 -S UP -v circle -c blue -x 28.630373 -y 30.640038 -z 4
n -t 7.3307753 -s 12 -S UP -v circle -c blue -x 290.28284 -y 344.97247 -z 4
n -t 7.7321978 -s 65 -S UP -v circle -c blue -x 431.9931 -y 326.0399 -z 4
n -t 7.85154 -s 84 -S UP -v circle -c blue -x 273.9928 -y 141.67377 -z 4
n -t 7.893897 -s 91 -S UP -v circle -c blue -x 27.483038 -y 408.3873 -z 4
n -t 8.039402 -s 89 -S UP -v circle -c blue -x 205.36804 -y 69.64172 -z 4
n -t 8.43015 -s 34 -S UP -v circle -c blue -x 168.75803 -y 225.94983 -z 4
n -t 8.733926 -s 20 -S UP -v circle -c blue -x 91.00497 -y 433.29333 -z 4
n -t 8.826641 -s 22 -S UP -v circle -c blue -x 286.25443 -y 401.83923 -z 4
n -t 8.849716 -s 96 -S UP -v circle -c blue -x 18.331144 -y 38.50028 -z 4
n -t 8.868521 -s 59 -S UP -v circle -c blue -x 194.09793 -y 109.6626 -z 4
n -t 8.906442 -s 12 -S UP -v circle -c blue -x 287.2087 -y 347.12473 -z 4
n -t 9.6795025 -s 24 -S UP -v circle -c blue -x 168.774 -y 295.59695 -z 4
n -t 9.792964 -s 72 -S UP -v circle -c blue -x 278.23862 -y 197.24051 -z 4
n -t 9.823322 -s 68 -S UP -v circle -c blue -x 438.09512 -y 218.69505 -z 4
n -t 9.96803 -s 79 -S UP -v circle -c blue -x 306.5664 -y 378.12744 -z 4
n -t 9.999107 -s 40 -S UP -v circle -c blue -x 167.13683 -y 130.1755 -z 4
n -t 10.015642 -s 77 -S UP -v circle -c blue -x 220.26964 -y 113.24692 -z 4
n -t 10.016098 -s 40 -S UP -v circle -c blue -x 166.83783 -y 130.28027 -z 4
n -t 10.209549 -s 35 -S UP -v circle -c blue -x 201.3241 -y 408.4704 -z 4
n -t 10.348856 -s 96 -S UP -v circle -c blue -x 3.3548107 -y 33.054775 -z 4
n -t 10.357345 -s 41 -S UP -v circle -c blue -x 197.34885 -y 186.08154 -z 4
n -t 10.366463 -s 40 -S UP -v circle -c blue -x 167.10138 -y 131.23997 -z 4
n -t 10.513839 -s 36 -S UP -v circle -c blue -x 447.35876 -y 129.20818 -z 4
n -t 10.926835 -s 28 -S UP -v circle -c blue -x 362.86188 -y 481.1601 -z 4
n -t 10.995143 -s 18 -S UP -v circle -c blue -x 489.58286 -y 390.34488 -z 4
n -t 11.036406 -s 33 -S UP -v circle -c blue -x 331.17282 -y 23.740946 -z 4
n -t 11.185286 -s 61 -S UP -v circle -c blue -x 382.0579 -y 147.86778 -z 4
n -t 11.241737 -s 71 -S UP -v circle -c blue -x 436.76498 -y 471.78143 -z 4
n -t 11.289756 -s 95 -S UP -v circle -c blue -x 3.9409878 -y 453.19437 -z 4
n -t 11.486118 -s 22 -S UP -v circle -c blue -x 294.09628 -y 391.0718 -z 4
n -t 11.622224 -s 35 -S UP -v circle -c blue -x 191.96268 -y 405.6137 -z 4
n -t 11.643198 -s 18 -S UP -v circle -c blue -x 486.4582 -y 393.729 -z 4
n -t 11.91321 -s 20 -S UP -v circle -c blue -x 73.80337 -y 476.7363 -z 4
n -t 11.935673 -s 66 -S UP -v circle -c blue -x 180.54823 -y 20.101088 -z 4
n -t 12.083485 -s 18 -S UP -v circle -c blue -x 484.7637 -y 389.77704 -z 4
n -t 12.131835 -s 82 -S UP -v circle -c blue -x 275.68008 -y 95.36552 -z 4
n -t 12.47523 -s 68 -S UP -v circle -c blue -x 449.34744 -y 265.19235 -z 4
n -t 12.537132 -s 29 -S UP -v circle -c blue -x 55.918633 -y 67.81653 -z 4
n -t 12.609454 -s 30 -S UP -v circle -c blue -x 401.13217 -y 31.036375 -z 4
n -t 12.626866 -s 61 -S UP -v circle -c blue -x 375.41092 -y 152.37582 -z 4
n -t 12.676382 -s 30 -S UP -v circle -c blue -x 401.85147 -y 30.110466 -z 4
n -t 12.695125 -s 18 -S UP -v circle -c blue -x 485.10214 -y 392.07043 -z 4
n -t 12.977455 -s 99 -S UP -v circle -c blue -x 458.08374 -y 284.65137 -z 4
n -t 13.148469 -s 60 -S UP -v circle -c blue -x 361.06784 -y 62.244167 -z 4
n -t 13.540914 -s 44 -S UP -v circle -c blue -x 203.78499 -y 52.922295 -z 4
n -t 13.6188 -s 91 -S UP -v circle -c blue -x 34.944004 -y 393.0151 -z 4
n -t 13.635526 -s 91 -S UP -v circle -c blue -x 35.0328 -y 393.33096 -z 4
n -t 13.966951 -s 28 -S UP -v circle -c blue -x 359.7595 -y 461.99866 -z 4
n -t 14.012524 -s 18 -S UP -v circle -c blue -x 497.31464 -y 409.8056 -z 4
n -t 14.19655 -s 45 -S UP -v circle -c blue -x 18.985668 -y 457.5308 -z 4
n -t 14.3627205 -s 25 -S UP -v circle -c blue -x 347.90985 -y 325.8224 -z 4
n -t 14.375385 -s 60 -S UP -v circle -c blue -x 368.12415 -y 51.85663 -z 4
n -t 14.394604 -s 62 -S UP -v circle -c blue -x 27.686283 -y 299.7301 -z 4
n -t 14.462349 -s 67 -S UP -v circle -c blue -x 315.22513 -y 71.602356 -z 4
n -t 14.871988 -s 53 -S UP -v circle -c blue -x 135.03654 -y 274.50415 -z 4
n -t 14.896863 -s 53 -S UP -v circle -c blue -x 135.4812 -y 274.33514 -z 4
n -t 14.936385 -s 66 -S UP -v circle -c blue -x 122.86352 -y 17.528109 -z 4
n -t 15.037087 -s 28 -S UP -v circle -c blue -x 359.02762 -y 475.13046 -z 4
n -t 15.065061 -s 53 -S UP -v circle -c blue -x 135.373 -y 273.2485 -z 4
n -t 15.1560135 -s 85 -S UP -v circle -c blue -x 378.0484 -y 283.56137 -z 4
n -t 15.2236 -s 39 -S UP -v circle -c blue -x 253.26286 -y 272.32608 -z 4
n -t 15.308189 -s 80 -S UP -v circle -c blue -x 136.23926 -y 432.3993 -z 4
n -t 15.309019 -s 65 -S UP -v circle -c blue -x 483.26205 -y 227.61989 -z 4
n -t 15.439216 -s 89 -S UP -v circle -c blue -x 138.89594 -y 146.46495 -z 4
n -t 15.554959 -s 65 -S UP -v circle -c blue -x 482.8346 -y 231.19838 -z 4
n -t 15.758559 -s 48 -S UP -v circle -c blue -x 326.69263 -y 92.29201 -z 4
n -t 15.762525 -s 70 -S UP -v circle -c blue -x 326.42953 -y 160.54425 -z 4
n -t 16.053112 -s 38 -S UP -v circle -c blue -x 294.02316 -y 435.88953 -z 4
n -t 16.099014 -s 29 -S UP -v circle -c blue -x 19.036196 -y 22.878952 -z 4
n -t 16.173721 -s 26 -S UP -v circle -c blue -x 14.225058 -y 75.67556 -z 4
n -t 16.285646 -s 28 -S UP -v circle -c blue -x 369.52338 -y 452.5435 -z 4
n -t 16.475573 -s 41 -S UP -v circle -c blue -x 268.65717 -y 211.79707 -z 4
n -t 16.58364 -s 41 -S UP -v circle -c blue -x 269.49243 -y 213.37393 -z 4
n -t 16.599405 -s 66 -S UP -v circle -c blue -x 131.90892 -y 45.475033 -z 4
n -t 16.616354 -s 62 -S UP -v circle -c blue -x 1.5902352 -y 286.25696 -z 4
n -t 16.875364 -s 29 -S UP -v circle -c blue -x 19.080778 -y 16.015162 -z 4
n -t 16.969162 -s 19 -S UP -v circle -c blue -x 192.86618 -y 434.8693 -z 4
n -t 17.3779 -s 36 -S UP -v circle -c blue -x 463.08395 -y 175.12003 -z 4
n -t 17.486057 -s 53 -S UP -v circle -c blue -x 143.27972 -y 304.4756 -z 4
n -t 18.036665 -s 44 -S UP -v circle -c blue -x 281.2687 -y 14.600533 -z 4
n -t 18.114613 -s 41 -S UP -v circle -c blue -x 259.11133 -y 188.17912 -z 4
n -t 18.131958 -s 99 -S UP -v circle -c blue -x 400.11823 -y 332.69998 -z 4
n -t 18.166388 -s 55 -S UP -v circle -c blue -x 309.67505 -y 7.8398504 -z 4
n -t 18.480753 -s 48 -S UP -v circle -c blue -x 328.45416 -y 134.02702 -z 4
n -t 18.49936 -s 50 -S UP -v circle -c blue -x 487.4144 -y 318.0793 -z 4
n -t 18.51956 -s 30 -S UP -v circle -c blue -x 363.94382 -y 48.386642 -z 4
n -t 18.554176 -s 36 -S UP -v circle -c blue -x 460.201 -y 175.09119 -z 4
n -t 18.642807 -s 59 -S UP -v circle -c blue -x 171.60323 -y 85.223724 -z 4
n -t 18.717903 -s 88 -S UP -v circle -c blue -x 32.339542 -y 426.02863 -z 4
n -t 19.104883 -s 32 -S UP -v circle -c blue -x 211.3508 -y 7.102829 -z 4
n -t 19.202745 -s 30 -S UP -v circle -c blue -x 356.84894 -y 52.2356 -z 4
n -t 19.502686 -s 43 -S UP -v circle -c blue -x 135.48941 -y 253.12823 -z 4
n -t 19.5691 -s 58 -S UP -v circle -c blue -x 280.02927 -y 347.46652 -z 4
n -t 19.66527 -s 98 -S UP -v circle -c blue -x 2.1416557 -y 367.35654 -z 4
n -t 19.76335 -s 65 -S UP -v circle -c blue -x 435.49728 -y 213.72556 -z 4
n -t 19.853724 -s 12 -S UP -v circle -c blue -x 313.50598 -y 368.03906 -z 4
n -t 20.130007 -s 25 -S UP -v circle -c blue -x 327.0807 -y 273.27527 -z 4
n -t 20.274899 -s 47 -S UP -v circle -c blue -x 257.17444 -y 107.34479 -z 4
n -t 20.474081 -s 20 -S UP -v circle -c blue -x 16.126148 -y 403.62018 -z 4
n -t 20.544363 -s 12 -S UP -v circle -c blue -x 316.68896 -y 373.49365 -z 4
n -t 21.079248 -s 40 -S UP -v circle -c blue -x 176.0938 -y 117.59557 -z 4
n -t 21.305756 -s 36 -S UP -v circle -c blue -x 488.2229 -y 152.03928 -z 4
n -t 21.421537 -s 28 -S UP -v circle -c blue -x 402.47223 -y 442.4693 -z 4
n -t 21.723534 -s 61 -S UP -v circle -c blue -x 395.0036 -y 312.80997 -z 4
n -t 22.052828 -s 28 -S UP -v circle -c blue -x 400.65 -y 448.20575 -z 4
n -t 22.173988 -s 32 -S UP -v circle -c blue -x 234.47548 -y 14.010783 -z 4
n -t 22.389668 -s 97 -S UP -v circle -c blue -x 359.57773 -y 146.06734 -z 4
n -t 22.429043 -s 33 -S UP -v circle -c blue -x 311.77844 -y 10.247915 -z 4
n -t 22.562893 -s 71 -S UP -v circle -c blue -x 374.37003 -y 276.83322 -z 4
n -t 22.619354 -s 45 -S UP -v circle -c blue -x 76.2197 -y 492.00085 -z 4
n -t 22.724075 -s 20 -S UP -v circle -c blue -x 43.55884 -y 415.75507 -z 4
n -t 22.84796 -s 37 -S UP -v circle -c blue -x 293.34998 -y 203.15001 -z 4
n -t 22.988514 -s 64 -S UP -v circle -c blue -x 325.4232 -y 45.547882 -z 4
n -t 23.008299 -s 85 -S UP -v circle -c blue -x 356.7151 -y 280.03568 -z 4
n -t 23.287825 -s 66 -S UP -v circle -c blue -x 241.67139 -y 8.672376 -z 4
n -t 23.418343 -s 43 -S UP -v circle -c blue -x 63.047947 -y 223.52524 -z 4
n -t 23.53815 -s 70 -S UP -v circle -c blue -x 270.6895 -y 226.84619 -z 4
n -t 23.790966 -s 75 -S UP -v circle -c blue -x 372.8005 -y 410.5524 -z 4
n -t 24.117247 -s 35 -S UP -v circle -c blue -x 183.236 -y 299.9507 -z 4
n -t 24.150656 -s 43 -S UP -v circle -c blue -x 75.28773 -y 225.7023 -z 4
n -t 24.237167 -s 91 -S UP -v circle -c blue -x 4.3083787 -y 400.88174 -z 4
n -t 24.591604 -s 79 -S UP -v circle -c blue -x 233.02136 -y 352.6658 -z 4
n -t 24.639442 -s 28 -S UP -v circle -c blue -x 392.05063 -y 485.28568 -z 4
n -t 24.958492 -s 81 -S UP -v circle -c blue -x 51.291443 -y 329.48224 -z 4
n -t 25.059475 -s 29 -S UP -v circle -c blue -x 98.1544 -y 5.068173 -z 4
n -t 25.400866 -s 21 -S UP -v circle -c blue -x 486.71695 -y 16.592617 -z 4
n -t 25.740746 -s 65 -S UP -v circle -c blue -x 335.82928 -y 169.04648 -z 4
n -t 25.99592 -s 40 -S UP -v circle -c blue -x 226.74005 -y 71.63218 -z 4
n -t 26.308033 -s 100 -S UP -v circle -c blue -x 302.46768 -y 398.0043 -z 4
n -t 26.662205 -s 89 -S UP -v circle -c blue -x 142.88254 -y 87.36408 -z 4
n -t 26.869139 -s 32 -S UP -v circle -c blue -x 256.67432 -y 2.0778952 -z 4
n -t 26.894733 -s 31 -S UP -v circle -c blue -x 103.37855 -y 150.47539 -z 4
n -t 26.98111 -s 84 -S UP -v circle -c blue -x 424.30728 -y 342.81857 -z 4
n -t 27.082165 -s 44 -S UP -v circle -c blue -x 177.299 -y 104.88509 -z 4
n -t 27.443287 -s 89 -S UP -v circle -c blue -x 130.37167 -y 88.32009 -z 4
n -t 27.51658 -s 50 -S UP -v circle -c blue -x 449.6707 -y 311.75037 -z 4
n -t 27.53065 -s 66 -S UP -v circle -c blue -x 189.31267 -y 2.72706 -z 4
n -t 27.659306 -s 30 -S UP -v circle -c blue -x 391.55322 -y 132.67525 -z 4
n -t 27.745964 -s 79 -S UP -v circle -c blue -x 204.79251 -y 307.6322 -z 4
n -t 28.14911 -s 99 -S UP -v circle -c blue -x 391.01825 -y 340.37164 -z 4
n -t 28.539375 -s 89 -S UP -v circle -c blue -x 114.901634 -y 77.787094 -z 4
n -t 28.738907 -s 76 -S UP -v circle -c blue -x 23.418592 -y 17.753952 -z 4
n -t 28.779818 -s 55 -S UP -v circle -c blue -x 374.14505 -y 71.80951 -z 4
n -t 28.992752 -s 33 -S UP -v circle -c blue -x 284.2933 -y 23.546362 -z 4
n -t 29.150019 -s 59 -S UP -v circle -c blue -x 190.26596 -y 78.998436 -z 4
n -t 29.287554 -s 29 -S UP -v circle -c blue -x 24.465544 -y 13.652006 -z 4
n -t 29.474604 -s 48 -S UP -v circle -c blue -x 295.28925 -y 149.02092 -z 4
n -t 29.476488 -s 65 -S UP -v circle -c blue -x 367.2716 -y 111.64312 -z 4
n -t 29.573849 -s 50 -S UP -v circle -c blue -x 413.9517 -y 322.2502 -z 4
n -t 29.632656 -s 84 -S UP -v circle -c blue -x 433.86154 -y 309.19003 -z 4
n -t 29.774899 -s 44 -S UP -v circle -c blue -x 215.84375 -y 109.24978 -z 4
n -t 30.110565 -s 99 -S UP -v circle -c blue -x 427.39755 -y 354.77045 -z 4
n -t 30.169626 -s 91 -S UP -v circle -c blue -x 105.722916 -y 405.4448 -z 4
n -t 30.294619 -s 72 -S UP -v circle -c blue -x 63.244896 -y 248.13805 -z 4
n -t 30.33085 -s 20 -S UP -v circle -c blue -x 32.05098 -y 389.41025 -z 4
n -t 31.290384 -s 32 -S UP -v circle -c blue -x 268.74634 -y 39.60492 -z 4