# Trace file generated by Jist/Swans Version 1.0.6. at Fri Jul 26 18:42:31 BRT 2013
V -t * -v 1.0a5 -a 0
W -t * -x 410 -y 410
A -t * -n 1 -p 0 -o 0xffffffff -c 31 -a 1
A -t * -h 1 -m 2147483647 -s 0
n -t 0.0 -s 1 -S UP -v circle -c red -x 479.59958 -y 437.4075 -z 4
n -t 0.0 -s 2 -S UP -v circle -c red -x 389.2471 -y 228.5841 -z 4
n -t 0.0 -s 3 -S UP -v circle -c red -x 50.566284 -y 154.57848 -z 4
n -t 0.0 -s 4 -S UP -v circle -c red -x 82.81317 -y 159.13832 -z 4
n -t 0.0 -s 5 -S UP -v circle -c red -x 61.847122 -y 171.62999 -z 4
n -t 0.0 -s 6 -S UP -v circle -c red -x 212.15842 -y 89.46398 -z 4
n -t 0.0 -s 7 -S UP -v circle -c red -x 34.802883 -y 336.48984 -z 4
n -t 0.0 -s 8 -S UP -v circle -c red -x 87.377426 -y 177.30182 -z 4
n -t 0.0 -s 9 -S UP -v circle -c blue -x 307.7094 -y 435.77563 -z 4
n -t 0.0 -s 10 -S UP -v circle -c blue -x 53.385616 -y 48.43372 -z 4
n -t 0.0 -s 11 -S UP -v circle -c blue -x 32.71422 -y 387.0468 -z 4
n -t 0.0 -s 12 -S UP -v circle -c blue -x 293.2733 -y 56.20095 -z 4
n -t 0.0 -s 13 -S UP -v circle -c blue -x 427.61685 -y 292.6304 -z 4
n -t 0.0 -s 14 -S UP -v circle -c blue -x 491.76718 -y 59.578747 -z 4
n -t 0.0 -s 15 -S UP -v circle -c blue -x 281.0206 -y 172.77518 -z 4
n -t 0.0 -s 16 -S UP -v circle -c blue -x 337.47675 -y 187.66966 -z 4
n -t 0.0 -s 17 -S UP -v circle -c blue -x 80.57338 -y 258.12207 -z 4
n -t 0.0 -s 18 -S UP -v circle -c blue -x 232.68005 -y 345.4908 -z 4
n -t 0.0 -s 19 -S UP -v circle -c blue -x 485.50598 -y 153.80118 -z 4
n -t 0.0 -s 20 -S UP -v circle -c blue -x 44.768543 -y 99.83549 -z 4
n -t 0.0 -s 21 -S UP -v circle -c blue -x 126.65385 -y 129.03404 -z 4
n -t 0.0 -s 22 -S UP -v circle -c blue -x 262.89008 -y 90.66752 -z 4
n -t 0.0 -s 23 -S UP -v circle -c blue -x 468.23547 -y 55.78205 -z 4
n -t 0.0 -s 24 -S UP -v circle -c blue -x 466.5155 -y 11.02221 -z 4
n -t 0.0 -s 25 -S UP -v circle -c blue -x 57.90025 -y 241.27519 -z 4
n -t 0.0 -s 26 -S UP -v circle -c blue -x 105.24484 -y 121.997536 -z 4
n -t 0.0 -s 27 -S UP -v circle -c blue -x 175.44588 -y 125.39971 -z 4
n -t 0.0 -s 28 -S UP -v circle -c blue -x 477.75162 -y 346.56107 -z 4
n -t 0.0 -s 29 -S UP -v circle -c blue -x 440.05954 -y 152.83043 -z 4
n -t 0.0 -s 30 -S UP -v circle -c blue -x 64.85668 -y 461.2041 -z 4
n -t 0.0 -s 31 -S UP -v circle -c blue -x 273.32693 -y 369.06082 -z 4
n -t 0.0 -s 32 -S UP -v circle -c blue -x 60.779484 -y 264.75955 -z 4
n -t 0.0 -s 33 -S UP -v circle -c blue -x 436.37625 -y 21.397114 -z 4
n -t 0.0 -s 34 -S UP -v circle -c blue -x 187.03583 -y 202.9669 -z 4
n -t 0.0 -s 35 -S UP -v circle -c blue -x 258.6194 -y 192.51233 -z 4
n -t 0.0 -s 36 -S UP -v circle -c blue -x 5.562276 -y 111.81226 -z 4
n -t 0.0 -s 37 -S UP -v circle -c blue -x 270.29688 -y 331.96515 -z 4
n -t 0.0 -s 38 -S UP -v circle -c blue -x 147.72337 -y 475.66483 -z 4
n -t 0.0 -s 39 -S UP -v circle -c blue -x 7.537663 -y 236.52362 -z 4
n -t 0.0 -s 40 -S UP -v circle -c blue -x 281.10245 -y 83.34902 -z 4
n -t 0.0 -s 41 -S UP -v circle -c blue -x 316.46313 -y 124.22735 -z 4
n -t 0.0 -s 42 -S UP -v circle -c blue -x 469.53552 -y 279.28064 -z 4
n -t 0.0 -s 43 -S UP -v circle -c blue -x 479.98166 -y 440.60202 -z 4
n -t 0.0 -s 44 -S UP -v circle -c blue -x 277.80374 -y 212.59927 -z 4
n -t 0.0 -s 45 -S UP -v circle -c blue -x 388.7654 -y 473.71207 -z 4
n -t 0.0 -s 46 -S UP -v circle -c blue -x 300.76996 -y 266.97986 -z 4
n -t 0.0 -s 47 -S UP -v circle -c blue -x 386.33432 -y 462.90048 -z 4
n -t 0.0 -s 48 -S UP -v circle -c blue -x 488.4898 -y 131.81367 -z 4
n -t 0.0 -s 49 -S UP -v circle -c blue -x 220.49681 -y 193.90694 -z 4
n -t 0.0 -s 50 -S UP -v circle -c blue -x 10.838151 -y 43.22502 -z 4
n -t 0.0 -s 51 -S UP -v circle -c blue -x 11.349142 -y 40.04225 -z 4
n -t 0.0 -s 52 -S UP -v circle -c blue -x 485.30258 -y 364.61734 -z 4
n -t 0.0 -s 53 -S UP -v circle -c blue -x 104.79408 -y 49.39857 -z 4
n -t 0.0 -s 54 -S UP -v circle -c blue -x 43.575287 -y 292.00873 -z 4
n -t 0.0 -s 55 -S UP -v circle -c blue -x 73.71291 -y 185.52924 -z 4
n -t 0.0 -s 56 -S UP -v circle -c blue -x 261.12958 -y 202.38072 -z 4
n -t 0.0 -s 57 -S UP -v circle -c blue -x 183.56976 -y 202.17986 -z 4
n -t 0.0 -s 58 -S UP -v circle -c blue -x 329.74353 -y 23.886173 -z 4
n -t 0.0 -s 59 -S UP -v circle -c blue -x 480.82724 -y 299.7164 -z 4
n -t 0.0 -s 60 -S UP -v circle -c blue -x 137.51099 -y 497.4777 -z 4
n -t 0.0 -s 61 -S UP -v circle -c blue -x 440.0351 -y 154.78221 -z 4
n -t 0.0 -s 62 -S UP -v circle -c blue -x 91.78185 -y 439.96112 -z 4
n -t 0.0 -s 63 -S UP -v circle -c blue -x 116.18292 -y 298.02686 -z 4
n -t 0.0 -s 64 -S UP -v circle -c blue -x 496.15094 -y 470.46265 -z 4
n -t 0.0 -s 65 -S UP -v circle -c blue -x 63.682972 -y 104.76833 -z 4
n -t 0.0 -s 66 -S UP -v circle -c blue -x 77.46953 -y 354.82684 -z 4
n -t 0.0 -s 67 -S UP -v circle -c blue -x 371.40973 -y 257.14758 -z 4
n -t 0.0 -s 68 -S UP -v circle -c blue -x 68.21132 -y 376.73138 -z 4
n -t 0.0 -s 69 -S UP -v circle -c blue -x 17.24422 -y 385.37415 -z 4
n -t 0.0 -s 70 -S UP -v circle -c blue -x 134.65843 -y 298.68515 -z 4
n -t 0.0 -s 71 -S UP -v circle -c blue -x 6.6652 -y 331.38873 -z 4
n -t 0.0 -s 72 -S UP -v circle -c blue -x 414.48923 -y 111.142334 -z 4
n -t 0.0 -s 73 -S UP -v circle -c blue -x 342.65048 -y 36.719322 -z 4
n -t 0.0 -s 74 -S UP -v circle -c blue -x 86.592285 -y 331.46667 -z 4
n -t 0.0 -s 75 -S UP -v circle -c blue -x 91.48335 -y 303.2041 -z 4
n -t 0.0 -s 76 -S UP -v circle -c blue -x 50.38181 -y 46.358795 -z 4
n -t 0.0 -s 77 -S UP -v circle -c blue -x 497.43115 -y 31.007528 -z 4
n -t 0.0 -s 78 -S UP -v circle -c blue -x 86.570145 -y 248.7449 -z 4
n -t 0.0 -s 79 -S UP -v circle -c blue -x 243.53696 -y 103.06275 -z 4
n -t 0.0 -s 80 -S UP -v circle -c blue -x 412.21747 -y 102.334114 -z 4
n -t 0.0 -s 81 -S UP -v circle -c blue -x 314.2417 -y 263.51862 -z 4
n -t 0.0 -s 82 -S UP -v circle -c blue -x 21.823465 -y 240.58762 -z 4
n -t 0.0 -s 83 -S UP -v circle -c blue -x 144.97223 -y 464.42862 -z 4
n -t 0.0 -s 84 -S UP -v circle -c blue -x 26.083082 -y 230.3954 -z 4
n -t 0.0 -s 85 -S UP -v circle -c blue -x 24.3648 -y 118.94679 -z 4
n -t 0.0 -s 86 -S UP -v circle -c blue -x 99.46546 -y 180.20917 -z 4
n -t 0.0 -s 87 -S UP -v circle -c blue -x 375.0594 -y 69.544914 -z 4
n -t 0.0 -s 88 -S UP -v circle -c blue -x 326.70276 -y 165.79294 -z 4
n -t 0.0 -s 89 -S UP -v circle -c blue -x 181.04572 -y 229.76968 -z 4
n -t 0.0 -s 90 -S UP -v circle -c blue -x 482.2342 -y 69.38648 -z 4
n -t 0.0 -s 91 -S UP -v circle -c blue -x 453.85687 -y 91.03763 -z 4
n -t 0.0 -s 92 -S UP -v circle -c blue -x 82.224785 -y 457.3669 -z 4
n -t 0.0 -s 93 -S UP -v circle -c blue -x 260.41754 -y 459.83527 -z 4
n -t 0.0 -s 94 -S UP -v circle -c blue -x 248.48917 -y 252.07347 -z 4
n -t 0.0 -s 95 -S UP -v circle -c blue -x 144.42146 -y 443.044 -z 4
n -t 0.0 -s 96 -S UP -v circle -c blue -x 310.94806 -y 422.1431 -z 4
n -t 0.0 -s 97 -S UP -v circle -c blue -x 206.54169 -y 172.23418 -z 4
n -t 0.0 -s 98 -S UP -v circle -c blue -x 29.534727 -y 326.49655 -z 4
n -t 0.0 -s 99 -S UP -v circle -c blue -x 10.801554 -y 323.63733 -z 4
n -t 0.0 -s 100 -S UP -v circle -c blue -x 428.07193 -y 296.2049 -z 4
n -t 0.0 -s 101 -S UP -v circle -c blue -x 222.73314 -y 475.77765 -z 4
n -t 0.0 -s 102 -S UP -v circle -c blue -x 427.83136 -y 239.23659 -z 4
n -t 0.0 -s 103 -S UP -v circle -c blue -x 475.63455 -y 257.76135 -z 4
n -t 0.0 -s 104 -S UP -v circle -c blue -x 134.47743 -y 461.0987 -z 4
n -t 0.0 -s 105 -S UP -v circle -c blue -x 193.8602 -y 389.03082 -z 4
n -t 0.0 -s 106 -S UP -v circle -c blue -x 242.01978 -y 332.3999 -z 4
n -t 0.0 -s 107 -S UP -v circle -c blue -x 164.62485 -y 336.70422 -z 4
n -t 0.0 -s 108 -S UP -v circle -c blue -x 255.34961 -y 217.31502 -z 4
n -t 0.0 -s 109 -S UP -v circle -c blue -x 253.70229 -y 214.85469 -z 4
n -t 0.0 -s 110 -S UP -v circle -c blue -x 118.92098 -y 136.95428 -z 4
n -t 0.0 -s 111 -S UP -v circle -c blue -x 165.51236 -y 196.33302 -z 4
n -t 0.0 -s 112 -S UP -v circle -c blue -x 354.1258 -y 153.04778 -z 4
n -t 0.0 -s 113 -S UP -v circle -c blue -x 187.71935 -y 381.7896 -z 4
n -t 0.0 -s 114 -S UP -v circle -c blue -x 18.78795 -y 461.6527 -z 4
n -t 0.0 -s 115 -S UP -v circle -c blue -x 466.34738 -y 481.8759 -z 4
n -t 0.0 -s 116 -S UP -v circle -c blue -x 486.80664 -y 217.4697 -z 4
n -t 0.0 -s 117 -S UP -v circle -c blue -x 84.73062 -y 81.36606 -z 4
n -t 0.0 -s 118 -S UP -v circle -c blue -x 318.07397 -y 317.6914 -z 4
n -t 0.0 -s 119 -S UP -v circle -c blue -x 271.9704 -y 111.98139 -z 4
n -t 0.0 -s 120 -S UP -v circle -c blue -x 423.09073 -y 153.17145 -z 4
n -t 0.0 -s 121 -S UP -v circle -c blue -x 421.02054 -y 212.55821 -z 4
n -t 0.0 -s 122 -S UP -v circle -c blue -x 483.84555 -y 444.34488 -z 4
n -t 0.0 -s 123 -S UP -v circle -c blue -x 128.55176 -y 79.099686 -z 4
n -t 0.0 -s 124 -S UP -v circle -c blue -x 44.096203 -y 472.1973 -z 4
n -t 0.0 -s 125 -S UP -v circle -c blue -x 77.283264 -y 436.09943 -z 4
n -t 0.0 -s 126 -S UP -v circle -c blue -x 35.70512 -y 160.29486 -z 4
n -t 0.0 -s 127 -S UP -v circle -c blue -x 313.87936 -y 306.92264 -z 4
n -t 0.0 -s 128 -S UP -v circle -c blue -x 431.60712 -y 174.2709 -z 4
n -t 0.0 -s 129 -S UP -v circle -c blue -x 152.58789 -y 42.25752 -z 4
n -t 0.0 -s 130 -S UP -v circle -c blue -x 464.704 -y 459.2165 -z 4
n -t 0.0 -s 131 -S UP -v circle -c blue -x 275.78796 -y 228.68597 -z 4
n -t 0.0 -s 132 -S UP -v circle -c blue -x 390.83398 -y 404.3392 -z 4
n -t 0.0 -s 133 -S UP -v circle -c blue -x 350.19012 -y 345.92178 -z 4
n -t 0.0 -s 134 -S UP -v circle -c blue -x 404.21274 -y 196.40869 -z 4
n -t 0.0 -s 135 -S UP -v circle -c blue -x 22.706926 -y 252.57742 -z 4
n -t 0.0 -s 136 -S UP -v circle -c blue -x 297.60333 -y 229.47293 -z 4
n -t 0.0 -s 137 -S UP -v circle -c blue -x 167.53587 -y 442.4829 -z 4
n -t 0.0 -s 138 -S UP -v circle -c blue -x 145.07947 -y 375.85236 -z 4
n -t 0.0 -s 139 -S UP -v circle -c blue -x 288.75998 -y 142.31276 -z 4
n -t 0.0 -s 140 -S UP -v circle -c blue -x 231.6922 -y 182.44737 -z 4
n -t 0.0 -s 141 -S UP -v circle -c blue -x 127.19709 -y 386.99005 -z 4
n -t 0.0 -s 142 -S UP -v circle -c blue -x 56.6462 -y 444.0537 -z 4
n -t 0.0 -s 143 -S UP -v circle -c blue -x 11.182189 -y 62.131077 -z 4
n -t 0.0 -s 144 -S UP -v circle -c blue -x 350.6985 -y 170.98701 -z 4
n -t 0.0 -s 145 -S UP -v circle -c blue -x 336.74948 -y 197.44882 -z 4
n -t 0.0 -s 146 -S UP -v circle -c blue -x 116.30505 -y 128.3769 -z 4
n -t 0.0 -s 147 -S UP -v circle -c blue -x 170.0269 -y 116.02858 -z 4
n -t 0.0 -s 148 -S UP -v circle -c blue -x 373.38995 -y 287.69345 -z 4
n -t 0.0 -s 149 -S UP -v circle -c blue -x 263.74628 -y 30.878216 -z 4
n -t 0.0 -s 150 -S UP -v circle -c blue -x 63.265144 -y 223.29318 -z 4
n -t 0.0 -s 151 -S UP -v circle -c blue -x 349.21716 -y 150.99094 -z 4
n -t 0.0 -s 152 -S UP -v circle -c blue -x 377.9 -y 476.08487 -z 4
n -t 0.0 -s 153 -S UP -v circle -c blue -x 256.96146 -y 437.8723 -z 4
n -t 0.0 -s 154 -S UP -v circle -c blue -x 177.06459 -y 328.07126 -z 4
n -t 0.0 -s 155 -S UP -v circle -c blue -x 483.95328 -y 393.30057 -z 4
n -t 0.0 -s 156 -S UP -v circle -c blue -x 378.4382 -y 412.96207 -z 4
n -t 0.0 -s 157 -S UP -v circle -c blue -x 36.971153 -y 267.9174 -z 4
n -t 0.0 -s 158 -S UP -v circle -c blue -x 338.0998 -y 373.9066 -z 4
n -t 0.0 -s 159 -S UP -v circle -c blue -x 162.31984 -y 145.68698 -z 4
n -t 0.0 -s 160 -S UP -v circle -c blue -x 324.36133 -y 356.4751 -z 4
n -t 0.0 -s 161 -S UP -v circle -c blue -x 117.91059 -y 73.59392 -z 4
n -t 0.0 -s 162 -S UP -v circle -c blue -x 356.05707 -y 347.3342 -z 4
n -t 0.0 -s 163 -S UP -v circle -c blue -x 48.64341 -y 291.15457 -z 4
n -t 0.0 -s 164 -S UP -v circle -c blue -x 267.49942 -y 82.799706 -z 4
n -t 0.0 -s 165 -S UP -v circle -c blue -x 407.88928 -y 247.04602 -z 4
n -t 0.0 -s 166 -S UP -v circle -c blue -x 52.62193 -y 419.9934 -z 4
n -t 0.0 -s 167 -S UP -v circle -c blue -x 492.73297 -y 226.76315 -z 4
n -t 0.0 -s 168 -S UP -v circle -c blue -x 467.55847 -y 392.2443 -z 4
n -t 0.0 -s 169 -S UP -v circle -c blue -x 68.065765 -y 116.73144 -z 4
n -t 0.0 -s 170 -S UP -v circle -c blue -x 257.20142 -y 232.40912 -z 4
n -t 0.0 -s 171 -S UP -v circle -c blue -x 182.59335 -y 87.45423 -z 4
n -t 0.0 -s 172 -S UP -v circle -c blue -x 151.22136 -y 7.8909397 -z 4
n -t 0.0 -s 173 -S UP -v circle -c blue -x 89.77878 -y 336.4668 -z 4
n -t 0.0 -s 174 -S UP -v circle -c blue -x 218.63618 -y 351.42853 -z 4
n -t 0.0 -s 175 -S UP -v circle -c blue -x 288.53305 -y 216.20572 -z 4
n -t 0.0 -s 176 -S UP -v circle -c blue -x 8.245289 -y 16.536772 -z 4
n -t 0.0 -s 177 -S UP -v circle -c blue -x 475.4003 -y 112.16426 -z 4
n -t 0.0 -s 178 -S UP -v circle -c blue -x 451.99103 -y 427.2985 -z 4
n -t 0.0 -s 179 -S UP -v circle -c blue -x 433.79547 -y 292.36572 -z 4
n -t 0.0 -s 180 -S UP -v circle -c blue -x 297.40356 -y 312.73468 -z 4
n -t 0.0 -s 181 -S UP -v circle -c blue -x 381.72137 -y 134.40749 -z 4
n -t 0.0 -s 182 -S UP -v circle -c blue -x 227.49997 -y 317.0916 -z 4
n -t 0.0 -s 183 -S UP -v circle -c blue -x 10.924071 -y 344.9563 -z 4
n -t 0.0 -s 184 -S UP -v circle -c blue -x 146.54672 -y 302.14474 -z 4
n -t 0.0 -s 185 -S UP -v circle -c blue -x 104.700264 -y 17.144949 -z 4
n -t 0.0 -s 186 -S UP -v circle -c blue -x 268.6074 -y 416.28827 -z 4
n -t 0.0 -s 187 -S UP -v circle -c blue -x 344.02972 -y 52.05536 -z 4
n -t 0.0 -s 188 -S UP -v circle -c blue -x 264.35712 -y 400.19116 -z 4
n -t 0.0 -s 189 -S UP -v circle -c blue -x 351.29745 -y 84.282425 -z 4
n -t 0.0 -s 190 -S UP -v circle -c blue -x 257.78275 -y 149.7916 -z 4
n -t 0.0 -s 191 -S UP -v circle -c blue -x 474.9598 -y 261.05563 -z 4
n -t 0.0 -s 192 -S UP -v circle -c blue -x 336.54926 -y 126.18053 -z 4
n -t 0.0 -s 193 -S UP -v circle -c blue -x 357.892 -y 496.83466 -z 4
n -t 0.0 -s 194 -S UP -v circle -c blue -x 452.40186 -y 17.5035 -z 4
n -t 0.0 -s 195 -S UP -v circle -c blue -x 426.07608 -y 57.66648 -z 4
n -t 0.0 -s 196 -S UP -v circle -c blue -x 356.3158 -y 341.57248 -z 4
n -t 0.0 -s 197 -S UP -v circle -c blue -x 75.41692 -y 473.55133 -z 4
n -t 0.0 -s 198 -S UP -v circle -c blue -x 88.47329 -y 267.8091 -z 4
n -t 0.0 -s 199 -S UP -v circle -c blue -x 163.93005 -y 463.96548 -z 4
n -t 0.0 -s 200 -S UP -v circle -c blue -x 37.748158 -y 414.0032 -z 4
n -t 0.0 -s 1 -S UP -v circle -c red -x 479.59958 -y 437.4075 -z 4
n -t 0.0 -s 200 -S UP -v circle -c blue -x 37.748158 -y 414.0032 -z 4
n -t 0.0 -s 3 -S UP -v circle -c red -x 50.566284 -y 154.57848 -z 4
n -t 0.0 -s 7 -S UP -v circle -c red -x 34.802883 -y 336.48984 -z 4
n -t 0.0 -s 199 -S UP -v circle -c blue -x 163.93005 -y 463.96548 -z 4
n -t 0.0 -s 15 -S UP -v circle -c blue -x 281.0206 -y 172.77518 -z 4
n -t 0.0 -s 31 -S UP -v circle -c blue -x 273.32693 -y 369.06082 -z 4
n -t 0.0 -s 63 -S UP -v circle -c blue -x 116.18292 -y 298.02686 -z 4
n -t 0.0 -s 127 -S UP -v circle -c blue -x 313.87936 -y 306.92264 -z 4
n -t 0.0 -s 128 -S UP -v circle -c blue -x 431.60712 -y 174.2709 -z 4
n -t 0.0 -s 64 -S UP -v circle -c blue -x 496.15094 -y 470.46265 -z 4
n -t 0.0 -s 129 -S UP -v circle -c blue -x 152.58789 -y 42.25752 -z 4
n -t 0.0 -s 130 -S UP -v circle -c blue -x 464.704 -y 459.2165 -z 4
n -t 0.0 -s 32 -S UP -v circle -c blue -x 60.779484 -y 264.75955 -z 4
n -t 0.0 -s 65 -S UP -v circle -c blue -x 63.682972 -y 104.76833 -z 4
n -t 0.0 -s 131 -S UP -v circle -c blue -x 275.78796 -y 228.68597 -z 4
n -t 0.0 -s 132 -S UP -v circle -c blue -x 390.83398 -y 404.3392 -z 4
n -t 0.0 -s 66 -S UP -v circle -c blue -x 77.46953 -y 354.82684 -z 4
n -t 0.0 -s 133 -S UP -v circle -c blue -x 350.19012 -y 345.92178 -z 4
n -t 0.0 -s 134 -S UP -v circle -c blue -x 404.21274 -y 196.40869 -z 4
n -t 0.0 -s 16 -S UP -v circle -c blue -x 337.47675 -y 187.66966 -z 4
n -t 0.0 -s 33 -S UP -v circle -c blue -x 436.37625 -y 21.397114 -z 4
n -t 0.0 -s 67 -S UP -v circle -c blue -x 371.40973 -y 257.14758 -z 4
n -t 0.0 -s 135 -S UP -v circle -c blue -x 22.706926 -y 252.57742 -z 4
n -t 0.0 -s 136 -S UP -v circle -c blue -x 297.60333 -y 229.47293 -z 4
n -t 0.0 -s 68 -S UP -v circle -c blue -x 68.21132 -y 376.73138 -z 4
n -t 0.0 -s 137 -S UP -v circle -c blue -x 167.53587 -y 442.4829 -z 4
n -t 0.0 -s 138 -S UP -v circle -c blue -x 145.07947 -y 375.85236 -z 4
n -t 0.0 -s 34 -S UP -v circle -c blue -x 187.03583 -y 202.9669 -z 4
n -t 0.0 -s 69 -S UP -v circle -c blue -x 17.24422 -y 385.37415 -z 4
n -t 0.0 -s 139 -S UP -v circle -c blue -x 288.75998 -y 142.31276 -z 4
n -t 0.0 -s 140 -S UP -v circle -c blue -x 231.6922 -y 182.44737 -z 4
n -t 0.0 -s 70 -S UP -v circle -c blue -x 134.65843 -y 298.68515 -z 4
n -t 0.0 -s 141 -S UP -v circle -c blue -x 127.19709 -y 386.99005 -z 4
n -t 0.0 -s 142 -S UP -v circle -c blue -x 56.6462 -y 444.0537 -z 4
n -t 0.0 -s 8 -S UP -v circle -c red -x 87.377426 -y 177.30182 -z 4
n -t 0.0 -s 17 -S UP -v circle -c blue -x 80.57338 -y 258.12207 -z 4
n -t 0.0 -s 35 -S UP -v circle -c blue -x 258.6194 -y 192.51233 -z 4
n -t 0.0 -s 71 -S UP -v circle -c blue -x 6.6652 -y 331.38873 -z 4
n -t 0.0 -s 143 -S UP -v circle -c blue -x 11.182189 -y 62.131077 -z 4
n -t 0.0 -s 144 -S UP -v circle -c blue -x 350.6985 -y 170.98701 -z 4
n -t 0.0 -s 72 -S UP -v circle -c blue -x 414.48923 -y 111.142334 -z 4
n -t 0.0 -s 145 -S UP -v circle -c blue -x 336.74948 -y 197.44882 -z 4
n -t 0.0 -s 146 -S UP -v circle -c blue -x 116.30505 -y 128.3769 -z 4
n -t 0.0 -s 36 -S UP -v circle -c blue -x 5.562276 -y 111.81226 -z 4
n -t 0.0 -s 73 -S UP -v circle -c blue -x 342.65048 -y 36.719322 -z 4
n -t 0.0 -s 147 -S UP -v circle -c blue -x 170.0269 -y 116.02858 -z 4
n -t 0.0 -s 148 -S UP -v circle -c blue -x 373.38995 -y 287.69345 -z 4
n -t 0.0 -s 74 -S UP -v circle -c blue -x 86.592285 -y 331.46667 -z 4
n -t 0.0 -s 149 -S UP -v circle -c blue -x 263.74628 -y 30.878216 -z 4
n -t 0.0 -s 150 -S UP -v circle -c blue -x 63.265144 -y 223.29318 -z 4
n -t 0.0 -s 18 -S UP -v circle -c blue -x 232.68005 -y 345.4908 -z 4
n -t 0.0 -s 37 -S UP -v circle -c blue -x 270.29688 -y 331.96515 -z 4
n -t 0.0 -s 75 -S UP -v circle -c blue -x 91.48335 -y 303.2041 -z 4
n -t 0.0 -s 151 -S UP -v circle -c blue -x 349.21716 -y 150.99094 -z 4
n -t 0.0 -s 152 -S UP -v circle -c blue -x 377.9 -y 476.08487 -z 4
n -t 0.0 -s 76 -S UP -v circle -c blue -x 50.38181 -y 46.358795 -z 4
n -t 0.0 -s 153 -S UP -v circle -c blue -x 256.96146 -y 437.8723 -z 4
n -t 0.0 -s 154 -S UP -v circle -c blue -x 177.06459 -y 328.07126 -z 4
n -t 0.0 -s 38 -S UP -v circle -c blue -x 147.72337 -y 475.66483 -z 4
n -t 0.0 -s 77 -S UP -v circle -c blue -x 497.43115 -y 31.007528 -z 4
n -t 0.0 -s 155 -S UP -v circle -c blue -x 483.95328 -y 393.30057 -z 4
n -t 0.0 -s 156 -S UP -v circle -c blue -x 378.4382 -y 412.96207 -z 4
n -t 0.0 -s 78 -S UP -v circle -c blue -x 86.570145 -y 248.7449 -z 4
n -t 0.0 -s 157 -S UP -v circle -c blue -x 36.971153 -y 267.9174 -z 4
n -t 0.0 -s 158 -S UP -v circle -c blue -x 338.0998 -y 373.9066 -z 4
n -t 0.0 -s 4 -S UP -v circle -c red -x 82.81317 -y 159.13832 -z 4
n -t 0.0 -s 9 -S UP -v circle -c blue -x 307.7094 -y 435.77563 -z 4
n -t 0.0 -s 198 -S UP -v circle -c blue -x 88.47329 -y 267.8091 -z 4
n -t 0.0 -s 19 -S UP -v circle -c blue -x 485.50598 -y 153.80118 -z 4
n -t 0.0 -s 39 -S UP -v circle -c blue -x 7.537663 -y 236.52362 -z 4
n -t 0.0 -s 79 -S UP -v circle -c blue -x 243.53696 -y 103.06275 -z 4
n -t 0.0 -s 159 -S UP -v circle -c blue -x 162.31984 -y 145.68698 -z 4
n -t 0.0 -s 160 -S UP -v circle -c blue -x 324.36133 -y 356.4751 -z 4
n -t 0.0 -s 80 -S UP -v circle -c blue -x 412.21747 -y 102.334114 -z 4
n -t 0.0 -s 161 -S UP -v circle -c blue -x 117.91059 -y 73.59392 -z 4
n -t 0.0 -s 162 -S UP -v circle -c blue -x 356.05707 -y 347.3342 -z 4
n -t 0.0 -s 40 -S UP -v circle -c blue -x 281.10245 -y 83.34902 -z 4
n -t 0.0 -s 81 -S UP -v circle -c blue -x 314.2417 -y 263.51862 -z 4
n -t 0.0 -s 163 -S UP -v circle -c blue -x 48.64341 -y 291.15457 -z 4
n -t 0.0 -s 164 -S UP -v circle -c blue -x 267.49942 -y 82.799706 -z 4
n -t 0.0 -s 82 -S UP -v circle -c blue -x 21.823465 -y 240.58762 -z 4
n -t 0.0 -s 165 -S UP -v circle -c blue -x 407.88928 -y 247.04602 -z 4
n -t 0.0 -s 166 -S UP -v circle -c blue -x 52.62193 -y 419.9934 -z 4
n -t 0.0 -s 20 -S UP -v circle -c blue -x 44.768543 -y 99.83549 -z 4
n -t 0.0 -s 41 -S UP -v circle -c blue -x 316.46313 -y 124.22735 -z 4
n -t 0.0 -s 83 -S UP -v circle -c blue -x 144.97223 -y 464.42862 -z 4
n -t 0.0 -s 167 -S UP -v circle -c blue -x 492.73297 -y 226.76315 -z 4
n -t 0.0 -s 168 -S UP -v circle -c blue -x 467.55847 -y 392.2443 -z 4
n -t 0.0 -s 84 -S UP -v circle -c blue -x 26.083082 -y 230.3954 -z 4
n -t 0.0 -s 169 -S UP -v circle -c blue -x 68.065765 -y 116.73144 -z 4
n -t 0.0 -s 170 -S UP -v circle -c blue -x 257.20142 -y 232.40912 -z 4
n -t 0.0 -s 42 -S UP -v circle -c blue -x 469.53552 -y 279.28064 -z 4
n -t 0.0 -s 85 -S UP -v circle -c blue -x 24.3648 -y 118.94679 -z 4
n -t 0.0 -s 171 -S UP -v circle -c blue -x 182.59335 -y 87.45423 -z 4
n -t 0.0 -s 172 -S UP -v circle -c blue -x 151.22136 -y 7.8909397 -z 4
n -t 0.0 -s 86 -S UP -v circle -c blue -x 99.46546 -y 180.20917 -z 4
n -t 0.0 -s 173 -S UP -v circle -c blue -x 89.77878 -y 336.4668 -z 4
n -t 0.0 -s 174 -S UP -v circle -c blue -x 218.63618 -y 351.42853 -z 4
n -t 0.0 -s 10 -S UP -v circle -c blue -x 53.385616 -y 48.43372 -z 4
n -t 0.0 -s 21 -S UP -v circle -c blue -x 126.65385 -y 129.03404 -z 4
n -t 0.0 -s 197 -S UP -v circle -c blue -x 75.41692 -y 473.55133 -z 4
n -t 0.0 -s 43 -S UP -v circle -c blue -x 479.98166 -y 440.60202 -z 4
n -t 0.0 -s 87 -S UP -v circle -c blue -x 375.0594 -y 69.544914 -z 4
n -t 0.0 -s 175 -S UP -v circle -c blue -x 288.53305 -y 216.20572 -z 4
n -t 0.0 -s 176 -S UP -v circle -c blue -x 8.245289 -y 16.536772 -z 4
n -t 0.0 -s 88 -S UP -v circle -c blue -x 326.70276 -y 165.79294 -z 4
n -t 0.0 -s 177 -S UP -v circle -c blue -x 475.4003 -y 112.16426 -z 4
n -t 0.0 -s 178 -S UP -v circle -c blue -x 451.99103 -y 427.2985 -z 4
n -t 0.0 -s 44 -S UP -v circle -c blue -x 277.80374 -y 212.59927 -z 4
n -t 0.0 -s 89 -S UP -v circle -c blue -x 181.04572 -y 229.76968 -z 4
n -t 0.0 -s 179 -S UP -v circle -c blue -x 433.79547 -y 292.36572 -z 4
n -t 0.0 -s 180 -S UP -v circle -c blue -x 297.40356 -y 312.73468 -z 4
n -t 0.0 -s 90 -S UP -v circle -c blue -x 482.2342 -y 69.38648 -z 4
n -t 0.0 -s 181 -S UP -v circle -c blue -x 381.72137 -y 134.40749 -z 4
n -t 0.0 -s 182 -S UP -v circle -c blue -x 227.49997 -y 317.0916 -z 4
n -t 0.0 -s 22 -S UP -v circle -c blue -x 262.89008 -y 90.66752 -z 4
n -t 0.0 -s 45 -S UP -v circle -c blue -x 388.7654 -y 473.71207 -z 4
n -t 0.0 -s 91 -S UP -v circle -c blue -x 453.85687 -y 91.03763 -z 4
n -t 0.0 -s 183 -S UP -v circle -c blue -x 10.924071 -y 344.9563 -z 4
n -t 0.0 -s 184 -S UP -v circle -c blue -x 146.54672 -y 302.14474 -z 4
n -t 0.0 -s 92 -S UP -v circle -c blue -x 82.224785 -y 457.3669 -z 4
n -t 0.0 -s 185 -S UP -v circle -c blue -x 104.700264 -y 17.144949 -z 4
n -t 0.0 -s 186 -S UP -v circle -c blue -x 268.6074 -y 416.28827 -z 4
n -t 0.0 -s 46 -S UP -v circle -c blue -x 300.76996 -y 266.97986 -z 4
n -t 0.0 -s 93 -S UP -v circle -c blue -x 260.41754 -y 459.83527 -z 4
n -t 0.0 -s 187 -S UP -v circle -c blue -x 344.02972 -y 52.05536 -z 4
n -t 0.0 -s 188 -S UP -v circle -c blue -x 264.35712 -y 400.19116 -z 4
n -t 0.0 -s 94 -S UP -v circle -c blue -x 248.48917 -y 252.07347 -z 4
n -t 0.0 -s 189 -S UP -v circle -c blue -x 351.29745 -y 84.282425 -z 4
n -t 0.0 -s 190 -S UP -v circle -c blue -x 257.78275 -y 149.7916 -z 4
n -t 0.0 -s 2 -S UP -v circle -c red -x 389.2471 -y 228.5841 -z 4
n -t 0.0 -s 5 -S UP -v circle -c red -x 61.847122 -y 171.62999 -z 4
n -t 0.0 -s 196 -S UP -v circle -c blue -x 356.3158 -y 341.57248 -z 4
n -t 0.0 -s 11 -S UP -v circle -c blue -x 32.71422 -y 387.0468 -z 4
n -t 0.0 -s 23 -S UP -v circle -c blue -x 468.23547 -y 55.78205 -z 4
n -t 0.0 -s 47 -S UP -v circle -c blue -x 386.33432 -y 462.90048 -z 4
n -t 0.0 -s 95 -S UP -v circle -c blue -x 144.42146 -y 443.044 -z 4
n -t 0.0 -s 191 -S UP -v circle -c blue -x 474.9598 -y 261.05563 -z 4
n -t 0.0 -s 192 -S UP -v circle -c blue -x 336.54926 -y 126.18053 -z 4
n -t 0.0 -s 96 -S UP -v circle -c blue -x 310.94806 -y 422.1431 -z 4
n -t 0.0 -s 193 -S UP -v circle -c blue -x 357.892 -y 496.83466 -z 4
n -t 0.0 -s 194 -S UP -v circle -c blue -x 452.40186 -y 17.5035 -z 4
n -t 0.0 -s 48 -S UP -v circle -c blue -x 488.4898 -y 131.81367 -z 4
n -t 0.0 -s 97 -S UP -v circle -c blue -x 206.54169 -y 172.23418 -z 4
n -t 0.0 -s 195 -S UP -v circle -c blue -x 426.07608 -y 57.66648 -z 4
n -t 0.0 -s 98 -S UP -v circle -c blue -x 29.534727 -y 326.49655 -z 4
n -t 0.0 -s 24 -S UP -v circle -c blue -x 466.5155 -y 11.02221 -z 4
n -t 0.0 -s 49 -S UP -v circle -c blue -x 220.49681 -y 193.90694 -z 4
n -t 0.0 -s 99 -S UP -v circle -c blue -x 10.801554 -y 323.63733 -z 4
n -t 0.0 -s 100 -S UP -v circle -c blue -x 428.07193 -y 296.2049 -z 4
n -t 0.0 -s 50 -S UP -v circle -c blue -x 10.838151 -y 43.22502 -z 4
n -t 0.0 -s 101 -S UP -v circle -c blue -x 222.73314 -y 475.77765 -z 4
n -t 0.0 -s 102 -S UP -v circle -c blue -x 427.83136 -y 239.23659 -z 4
n -t 0.0 -s 12 -S UP -v circle -c blue -x 293.2733 -y 56.20095 -z 4
n -t 0.0 -s 25 -S UP -v circle -c blue -x 57.90025 -y 241.27519 -z 4
n -t 0.0 -s 51 -S UP -v circle -c blue -x 11.349142 -y 40.04225 -z 4
n -t 0.0 -s 103 -S UP -v circle -c blue -x 475.63455 -y 257.76135 -z 4
n -t 0.0 -s 104 -S UP -v circle -c blue -x 134.47743 -y 461.0987 -z 4
n -t 0.0 -s 52 -S UP -v circle -c blue -x 485.30258 -y 364.61734 -z 4
n -t 0.0 -s 105 -S UP -v circle -c blue -x 193.8602 -y 389.03082 -z 4
n -t 0.0 -s 106 -S UP -v circle -c blue -x 242.01978 -y 332.3999 -z 4
n -t 0.0 -s 26 -S UP -v circle -c blue -x 105.24484 -y 121.997536 -z 4
n -t 0.0 -s 53 -S UP -v circle -c blue -x 104.79408 -y 49.39857 -z 4
n -t 0.0 -s 107 -S UP -v circle -c blue -x 164.62485 -y 336.70422 -z 4
n -t 0.0 -s 108 -S UP -v circle -c blue -x 255.34961 -y 217.31502 -z 4
n -t 0.0 -s 54 -S UP -v circle -c blue -x 43.575287 -y 292.00873 -z 4
n -t 0.0 -s 109 -S UP -v circle -c blue -x 253.70229 -y 214.85469 -z 4
n -t 0.0 -s 110 -S UP -v circle -c blue -x 118.92098 -y 136.95428 -z 4
n -t 0.0 -s 6 -S UP -v circle -c red -x 212.15842 -y 89.46398 -z 4
n -t 0.0 -s 13 -S UP -v circle -c blue -x 427.61685 -y 292.6304 -z 4
n -t 0.0 -s 27 -S UP -v circle -c blue -x 175.44588 -y 125.39971 -z 4
n -t 0.0 -s 55 -S UP -v circle -c blue -x 73.71291 -y 185.52924 -z 4
n -t 0.0 -s 111 -S UP -v circle -c blue -x 165.51236 -y 196.33302 -z 4
n -t 0.0 -s 112 -S UP -v circle -c blue -x 354.1258 -y 153.04778 -z 4
n -t 0.0 -s 56 -S UP -v circle -c blue -x 261.12958 -y 202.38072 -z 4
n -t 0.0 -s 113 -S UP -v circle -c blue -x 187.71935 -y 381.7896 -z 4
n -t 0.0 -s 114 -S UP -v circle -c blue -x 18.78795 -y 461.6527 -z 4
n -t 0.0 -s 28 -S UP -v circle -c blue -x 477.75162 -y 346.56107 -z 4
n -t 0.0 -s 57 -S UP -v circle -c blue -x 183.56976 -y 202.17986 -z 4
n -t 0.0 -s 115 -S UP -v circle -c blue -x 466.34738 -y 481.8759 -z 4
n -t 0.0 -s 116 -S UP -v circle -c blue -x 486.80664 -y 217.4697 -z 4
n -t 0.0 -s 58 -S UP -v circle -c blue -x 329.74353 -y 23.886173 -z 4
n -t 0.0 -s 117 -S UP -v circle -c blue -x 84.73062 -y 81.36606 -z 4
n -t 0.0 -s 118 -S UP -v circle -c blue -x 318.07397 -y 317.6914 -z 4
n -t 0.0 -s 14 -S UP -v circle -c blue -x 491.76718 -y 59.578747 -z 4
n -t 0.0 -s 29 -S UP -v circle -c blue -x 440.05954 -y 152.83043 -z 4
n -t 0.0 -s 59 -S UP -v circle -c blue -x 480.82724 -y 299.7164 -z 4
n -t 0.0 -s 119 -S UP -v circle -c blue -x 271.9704 -y 111.98139 -z 4
n -t 0.0 -s 120 -S UP -v circle -c blue -x 423.09073 -y 153.17145 -z 4
n -t 0.0 -s 60 -S UP -v circle -c blue -x 137.51099 -y 497.4777 -z 4
n -t 0.0 -s 121 -S UP -v circle -c blue -x 421.02054 -y 212.55821 -z 4
n -t 0.0 -s 122 -S UP -v circle -c blue -x 483.84555 -y 444.34488 -z 4
n -t 0.0 -s 30 -S UP -v circle -c blue -x 64.85668 -y 461.2041 -z 4
n -t 0.0 -s 61 -S UP -v circle -c blue -x 440.0351 -y 154.78221 -z 4
n -t 0.0 -s 123 -S UP -v circle -c blue -x 128.55176 -y 79.099686 -z 4
n -t 0.0 -s 124 -S UP -v circle -c blue -x 44.096203 -y 472.1973 -z 4
n -t 0.0 -s 62 -S UP -v circle -c blue -x 91.78185 -y 439.96112 -z 4
n -t 0.0 -s 125 -S UP -v circle -c blue -x 77.283264 -y 436.09943 -z 4
n -t 0.0 -s 126 -S UP -v circle -c blue -x 35.70512 -y 160.29486 -z 4
n -t 0.03251525 -s 136 -S UP -v circle -c blue -x 297.88315 -y 229.32437 -z 4
n -t 0.03986834 -s 175 -S UP -v circle -c blue -x 289.00858 -y 216.2187 -z 4
n -t 0.08428645 -s 21 -S UP -v circle -c blue -x 126.28464 -y 128.13062 -z 4
n -t 0.09966476 -s 130 -S UP -v circle -c blue -x 465.40295 -y 457.83426 -z 4
n -t 0.15438426 -s 156 -S UP -v circle -c blue -x 376.81207 -y 412.3292 -z 4
n -t 0.19634333 -s 111 -S UP -v circle -c blue -x 166.91187 -y 199.29314 -z 4
n -t 0.19733118 -s 170 -S UP -v circle -c blue -x 255.71248 -y 228.96448 -z 4
n -t 0.30234677 -s 124 -S UP -v circle -c blue -x 47.24879 -y 475.55542 -z 4
n -t 0.35523432 -s 70 -S UP -v circle -c blue -x 130.44069 -y 301.78723 -z 4
n -t 0.38042513 -s 116 -S UP -v circle -c blue -x 488.55804 -y 216.35228 -z 4
n -t 0.41875488 -s 182 -S UP -v circle -c blue -x 223.83266 -y 322.64536 -z 4
n -t 0.45884645 -s 58 -S UP -v circle -c blue -x 331.26126 -y 27.033438 -z 4
n -t 0.5320857 -s 129 -S UP -v circle -c blue -x 151.52231 -y 45.808514 -z 4
n -t 0.53248775 -s 50 -S UP -v circle -c blue -x 10.425122 -y 42.081974 -z 4
n -t 0.56605744 -s 200 -S UP -v circle -c blue -x 39.26261 -y 406.88046 -z 4
n -t 0.62853134 -s 87 -S UP -v circle -c blue -x 368.61707 -y 69.48374 -z 4
n -t 0.63804823 -s 118 -S UP -v circle -c blue -x 321.38245 -y 308.47995 -z 4
n -t 0.6527291 -s 77 -S UP -v circle -c blue -x 496.92252 -y 43.1099 -z 4
n -t 0.71803504 -s 38 -S UP -v circle -c blue -x 159.03494 -y 471.9188 -z 4
n -t 0.7266518 -s 86 -S UP -v circle -c blue -x 91.87546 -y 182.01814 -z 4
n -t 0.8131394 -s 136 -S UP -v circle -c blue -x 284.67108 -y 231.01945 -z 4
n -t 0.85933614 -s 80 -S UP -v circle -c blue -x 421.80405 -y 95.370636 -z 4
n -t 0.91426426 -s 181 -S UP -v circle -c blue -x 373.0695 -y 127.4876 -z 4
n -t 0.92083335 -s 20 -S UP -v circle -c blue -x 60.558945 -y 104.32715 -z 4