# Trace file generated by Jist/Swans Version 1.0.6. at Fri Jul 26 18:45:53 BRT 2013
V -t * -v 1.0a5 -a 0
W -t * -x 410 -y 410
A -t * -n 1 -p 0 -o 0xffffffff -c 31 -a 1
A -t * -h 1 -m 2147483647 -s 0
n -t 0.0 -s 1 -S UP -v circle -c red -x 385.52423 -y 185.89827 -z 4
n -t 0.0 -s 2 -S UP -v circle -c red -x 366.87994 -y 233.61182 -z 4
n -t 0.0 -s 3 -S UP -v circle -c red -x 148.10458 -y 276.20822 -z 4
n -t 0.0 -s 4 -S UP -v circle -c red -x 292.6865 -y 169.20065 -z 4
n -t 0.0 -s 5 -S UP -v circle -c red -x 415.41794 -y 75.16122 -z 4
n -t 0.0 -s 6 -S UP -v circle -c red -x 84.15398 -y 103.46719 -z 4
n -t 0.0 -s 7 -S UP -v circle -c red -x 377.26898 -y 436.4285 -z 4
n -t 0.0 -s 8 -S UP -v circle -c red -x 220.40251 -y 176.3269 -z 4
n -t 0.0 -s 9 -S UP -v circle -c blue -x 440.33734 -y 458.90054 -z 4
n -t 0.0 -s 10 -S UP -v circle -c blue -x 299.3939 -y 168.65953 -z 4
n -t 0.0 -s 11 -S UP -v circle -c blue -x 224.1806 -y 75.5856 -z 4
n -t 0.0 -s 12 -S UP -v circle -c blue -x 340.77914 -y 262.89276 -z 4
n -t 0.0 -s 13 -S UP -v circle -c blue -x 187.15302 -y 70.901306 -z 4
n -t 0.0 -s 14 -S UP -v circle -c blue -x 494.04657 -y 381.93597 -z 4
n -t 0.0 -s 15 -S UP -v circle -c blue -x 368.48532 -y 41.0454 -z 4
n -t 0.0 -s 16 -S UP -v circle -c blue -x 166.95541 -y 267.09033 -z 4
n -t 0.0 -s 17 -S UP -v circle -c blue -x 210.71637 -y 329.07098 -z 4
n -t 0.0 -s 18 -S UP -v circle -c blue -x 341.28104 -y 481.51758 -z 4
n -t 0.0 -s 19 -S UP -v circle -c blue -x 478.79947 -y 272.87256 -z 4
n -t 0.0 -s 20 -S UP -v circle -c blue -x 263.1168 -y 461.81207 -z 4
n -t 0.0 -s 21 -S UP -v circle -c blue -x 354.56567 -y 478.34573 -z 4
n -t 0.0 -s 22 -S UP -v circle -c blue -x 231.13725 -y 141.35898 -z 4
n -t 0.0 -s 23 -S UP -v circle -c blue -x 223.52687 -y 385.2825 -z 4
n -t 0.0 -s 24 -S UP -v circle -c blue -x 298.26126 -y 239.09625 -z 4
n -t 0.0 -s 25 -S UP -v circle -c blue -x 405.66174 -y 204.81535 -z 4
n -t 0.0 -s 26 -S UP -v circle -c blue -x 407.19623 -y 23.073435 -z 4
n -t 0.0 -s 27 -S UP -v circle -c blue -x 212.94162 -y 35.069378 -z 4
n -t 0.0 -s 28 -S UP -v circle -c blue -x 97.70933 -y 95.308334 -z 4
n -t 0.0 -s 29 -S UP -v circle -c blue -x 148.7034 -y 477.70444 -z 4
n -t 0.0 -s 30 -S UP -v circle -c blue -x 119.6633 -y 401.81003 -z 4
n -t 0.0 -s 31 -S UP -v circle -c blue -x 132.04196 -y 89.75187 -z 4
n -t 0.0 -s 32 -S UP -v circle -c blue -x 219.56468 -y 296.6206 -z 4
n -t 0.0 -s 33 -S UP -v circle -c blue -x 223.32939 -y 181.02289 -z 4
n -t 0.0 -s 34 -S UP -v circle -c blue -x 315.47937 -y 402.13953 -z 4
n -t 0.0 -s 35 -S UP -v circle -c blue -x 13.623744 -y 61.790466 -z 4
n -t 0.0 -s 36 -S UP -v circle -c blue -x 253.74184 -y 429.05963 -z 4
n -t 0.0 -s 37 -S UP -v circle -c blue -x 494.63907 -y 323.75018 -z 4
n -t 0.0 -s 38 -S UP -v circle -c blue -x 236.17204 -y 290.65005 -z 4
n -t 0.0 -s 39 -S UP -v circle -c blue -x 150.33678 -y 400.71915 -z 4
n -t 0.0 -s 40 -S UP -v circle -c blue -x 195.96252 -y 158.97295 -z 4
n -t 0.0 -s 41 -S UP -v circle -c blue -x 63.970684 -y 266.34338 -z 4
n -t 0.0 -s 42 -S UP -v circle -c blue -x 378.63202 -y 229.47327 -z 4
n -t 0.0 -s 43 -S UP -v circle -c blue -x 53.18028 -y 32.397865 -z 4
n -t 0.0 -s 44 -S UP -v circle -c blue -x 388.283 -y 448.2233 -z 4
n -t 0.0 -s 45 -S UP -v circle -c blue -x 72.753876 -y 472.1589 -z 4
n -t 0.0 -s 46 -S UP -v circle -c blue -x 92.84699 -y 399.3555 -z 4
n -t 0.0 -s 47 -S UP -v circle -c blue -x 131.95851 -y 3.8291514 -z 4
n -t 0.0 -s 48 -S UP -v circle -c blue -x 141.24898 -y 183.75102 -z 4
n -t 0.0 -s 49 -S UP -v circle -c blue -x 87.50689 -y 285.05573 -z 4
n -t 0.0 -s 50 -S UP -v circle -c blue -x 143.8486 -y 452.1596 -z 4
n -t 0.0 -s 51 -S UP -v circle -c blue -x 400.6605 -y 233.09705 -z 4
n -t 0.0 -s 52 -S UP -v circle -c blue -x 260.6854 -y 193.35222 -z 4
n -t 0.0 -s 53 -S UP -v circle -c blue -x 98.67823 -y 148.99588 -z 4
n -t 0.0 -s 54 -S UP -v circle -c blue -x 352.72507 -y 350.8258 -z 4
n -t 0.0 -s 55 -S UP -v circle -c blue -x 497.5429 -y 176.9739 -z 4
n -t 0.0 -s 56 -S UP -v circle -c blue -x 294.41376 -y 428.60205 -z 4
n -t 0.0 -s 57 -S UP -v circle -c blue -x 20.036072 -y 21.886557 -z 4
n -t 0.0 -s 58 -S UP -v circle -c blue -x 453.525 -y 299.84042 -z 4
n -t 0.0 -s 59 -S UP -v circle -c blue -x 155.88792 -y 213.60403 -z 4
n -t 0.0 -s 60 -S UP -v circle -c blue -x 390.849 -y 201.80997 -z 4
n -t 0.0 -s 61 -S UP -v circle -c blue -x 38.688183 -y 494.20688 -z 4
n -t 0.0 -s 62 -S UP -v circle -c blue -x 59.226395 -y 161.15598 -z 4
n -t 0.0 -s 63 -S UP -v circle -c blue -x 466.9725 -y 194.4116 -z 4
n -t 0.0 -s 64 -S UP -v circle -c blue -x 222.46426 -y 266.72546 -z 4
n -t 0.0 -s 65 -S UP -v circle -c blue -x 238.56828 -y 303.13898 -z 4
n -t 0.0 -s 66 -S UP -v circle -c blue -x 120.66522 -y 489.27527 -z 4
n -t 0.0 -s 67 -S UP -v circle -c blue -x 341.7291 -y 447.99356 -z 4
n -t 0.0 -s 68 -S UP -v circle -c blue -x 472.52048 -y 232.41982 -z 4
n -t 0.0 -s 69 -S UP -v circle -c blue -x 102.35414 -y 34.97416 -z 4
n -t 0.0 -s 70 -S UP -v circle -c blue -x 487.41885 -y 104.85676 -z 4
n -t 0.0 -s 71 -S UP -v circle -c blue -x 1.8922687 -y 19.24616 -z 4
n -t 0.0 -s 72 -S UP -v circle -c blue -x 413.2446 -y 296.35175 -z 4
n -t 0.0 -s 73 -S UP -v circle -c blue -x 288.28677 -y 332.49014 -z 4
n -t 0.0 -s 74 -S UP -v circle -c blue -x 139.10898 -y 458.71793 -z 4
n -t 0.0 -s 75 -S UP -v circle -c blue -x 115.11818 -y 99.33755 -z 4
n -t 0.0 -s 76 -S UP -v circle -c blue -x 117.79934 -y 76.081696 -z 4
n -t 0.0 -s 77 -S UP -v circle -c blue -x 479.2384 -y 369.796 -z 4
n -t 0.0 -s 78 -S UP -v circle -c blue -x 349.439 -y 417.50827 -z 4
n -t 0.0 -s 79 -S UP -v circle -c blue -x 331.63013 -y 446.3768 -z 4
n -t 0.0 -s 80 -S UP -v circle -c blue -x 346.92224 -y 409.4312 -z 4
n -t 0.0 -s 81 -S UP -v circle -c blue -x 111.63139 -y 224.81787 -z 4
n -t 0.0 -s 82 -S UP -v circle -c blue -x 473.5016 -y 28.592735 -z 4
n -t 0.0 -s 83 -S UP -v circle -c blue -x 482.3847 -y 112.74314 -z 4
n -t 0.0 -s 84 -S UP -v circle -c blue -x 134.02357 -y 380.0916 -z 4
n -t 0.0 -s 85 -S UP -v circle -c blue -x 411.43884 -y 69.14941 -z 4
n -t 0.0 -s 86 -S UP -v circle -c blue -x 211.49135 -y 294.8306 -z 4
n -t 0.0 -s 87 -S UP -v circle -c blue -x 60.568897 -y 483.02713 -z 4
n -t 0.0 -s 88 -S UP -v circle -c blue -x 59.81529 -y 9.767413 -z 4
n -t 0.0 -s 89 -S UP -v circle -c blue -x 393.50162 -y 306.41476 -z 4
n -t 0.0 -s 90 -S UP -v circle -c blue -x 98.9283 -y 9.955555 -z 4
n -t 0.0 -s 91 -S UP -v circle -c blue -x 329.43143 -y 486.39984 -z 4
n -t 0.0 -s 92 -S UP -v circle -c blue -x 159.20618 -y 38.897663 -z 4
n -t 0.0 -s 93 -S UP -v circle -c blue -x 318.77542 -y 423.59607 -z 4
n -t 0.0 -s 94 -S UP -v circle -c blue -x 104.84806 -y 272.15588 -z 4
n -t 0.0 -s 95 -S UP -v circle -c blue -x 480.0161 -y 378.9626 -z 4
n -t 0.0 -s 96 -S UP -v circle -c blue -x 339.23123 -y 495.82965 -z 4
n -t 0.0 -s 97 -S UP -v circle -c blue -x 51.87562 -y 374.94977 -z 4
n -t 0.0 -s 98 -S UP -v circle -c blue -x 85.13451 -y 407.22357 -z 4
n -t 0.0 -s 99 -S UP -v circle -c blue -x 202.30818 -y 195.24503 -z 4
n -t 0.0 -s 100 -S UP -v circle -c blue -x 107.19454 -y 329.02737 -z 4
n -t 0.0 -s 101 -S UP -v circle -c blue -x 318.41614 -y 295.18945 -z 4
n -t 0.0 -s 102 -S UP -v circle -c blue -x 438.2706 -y 193.28683 -z 4
n -t 0.0 -s 103 -S UP -v circle -c blue -x 332.61942 -y 343.5063 -z 4
n -t 0.0 -s 104 -S UP -v circle -c blue -x 312.99008 -y 248.47853 -z 4
n -t 0.0 -s 105 -S UP -v circle -c blue -x 28.14269 -y 237.53667 -z 4
n -t 0.0 -s 106 -S UP -v circle -c blue -x 145.25441 -y 486.658 -z 4
n -t 0.0 -s 107 -S UP -v circle -c blue -x 398.73035 -y 366.85733 -z 4
n -t 0.0 -s 108 -S UP -v circle -c blue -x 498.72467 -y 90.9206 -z 4
n -t 0.0 -s 109 -S UP -v circle -c blue -x 105.73995 -y 453.04398 -z 4
n -t 0.0 -s 110 -S UP -v circle -c blue -x 444.27548 -y 102.72515 -z 4
n -t 0.0 -s 111 -S UP -v circle -c blue -x 402.37396 -y 111.46217 -z 4
n -t 0.0 -s 112 -S UP -v circle -c blue -x 322.3027 -y 488.83972 -z 4
n -t 0.0 -s 113 -S UP -v circle -c blue -x 156.44548 -y 470.26825 -z 4
n -t 0.0 -s 114 -S UP -v circle -c blue -x 193.96931 -y 107.08454 -z 4
n -t 0.0 -s 115 -S UP -v circle -c blue -x 56.08675 -y 434.1869 -z 4
n -t 0.0 -s 116 -S UP -v circle -c blue -x 379.5421 -y 385.40195 -z 4
n -t 0.0 -s 117 -S UP -v circle -c blue -x 288.2328 -y 398.9246 -z 4
n -t 0.0 -s 118 -S UP -v circle -c blue -x 16.665638 -y 20.25491 -z 4
n -t 0.0 -s 119 -S UP -v circle -c blue -x 428.26852 -y 145.0552 -z 4
n -t 0.0 -s 120 -S UP -v circle -c blue -x 91.67704 -y 496.55905 -z 4
n -t 0.0 -s 121 -S UP -v circle -c blue -x 16.329258 -y 467.5762 -z 4
n -t 0.0 -s 122 -S UP -v circle -c blue -x 85.01783 -y 334.33588 -z 4
n -t 0.0 -s 123 -S UP -v circle -c blue -x 46.485783 -y 114.73257 -z 4
n -t 0.0 -s 124 -S UP -v circle -c blue -x 151.76126 -y 177.52797 -z 4
n -t 0.0 -s 125 -S UP -v circle -c blue -x 389.21414 -y 313.71652 -z 4
n -t 0.0 -s 126 -S UP -v circle -c blue -x 421.75006 -y 181.86504 -z 4
n -t 0.0 -s 127 -S UP -v circle -c blue -x 464.6175 -y 383.99756 -z 4
n -t 0.0 -s 128 -S UP -v circle -c blue -x 334.52368 -y 303.6749 -z 4
n -t 0.0 -s 129 -S UP -v circle -c blue -x 297.99493 -y 474.77573 -z 4
n -t 0.0 -s 130 -S UP -v circle -c blue -x 322.97983 -y 485.90018 -z 4
n -t 0.0 -s 131 -S UP -v circle -c blue -x 114.38525 -y 190.77483 -z 4
n -t 0.0 -s 132 -S UP -v circle -c blue -x 269.63516 -y 225.54266 -z 4
n -t 0.0 -s 133 -S UP -v circle -c blue -x 363.1906 -y 380.6346 -z 4
n -t 0.0 -s 134 -S UP -v circle -c blue -x 490.67245 -y 455.9952 -z 4
n -t 0.0 -s 135 -S UP -v circle -c blue -x 436.12558 -y 80.7904 -z 4
n -t 0.0 -s 136 -S UP -v circle -c blue -x 58.13289 -y 104.34073 -z 4
n -t 0.0 -s 137 -S UP -v circle -c blue -x 334.4525 -y 422.15427 -z 4
n -t 0.0 -s 138 -S UP -v circle -c blue -x 169.25583 -y 377.26038 -z 4
n -t 0.0 -s 139 -S UP -v circle -c blue -x 317.3534 -y 190.27385 -z 4
n -t 0.0 -s 140 -S UP -v circle -c blue -x 375.9076 -y 477.67603 -z 4
n -t 0.0 -s 141 -S UP -v circle -c blue -x 89.63385 -y 366.0314 -z 4
n -t 0.0 -s 142 -S UP -v circle -c blue -x 25.271803 -y 269.08963 -z 4
n -t 0.0 -s 143 -S UP -v circle -c blue -x 260.73215 -y 383.37094 -z 4
n -t 0.0 -s 144 -S UP -v circle -c blue -x 456.69458 -y 245.63312 -z 4
n -t 0.0 -s 145 -S UP -v circle -c blue -x 79.8724 -y 3.964007 -z 4
n -t 0.0 -s 146 -S UP -v circle -c blue -x 187.16377 -y 166.40884 -z 4
n -t 0.0 -s 147 -S UP -v circle -c blue -x 455.5081 -y 193.04234 -z 4
n -t 0.0 -s 148 -S UP -v circle -c blue -x 79.91928 -y 404.5202 -z 4
n -t 0.0 -s 149 -S UP -v circle -c blue -x 436.97913 -y 463.66376 -z 4
n -t 0.0 -s 150 -S UP -v circle -c blue -x 274.8961 -y 499.44318 -z 4
n -t 0.0 -s 151 -S UP -v circle -c blue -x 38.28162 -y 452.2134 -z 4
n -t 0.0 -s 152 -S UP -v circle -c blue -x 406.03375 -y 289.67953 -z 4
n -t 0.0 -s 153 -S UP -v circle -c blue -x 438.43073 -y 70.67698 -z 4
n -t 0.0 -s 154 -S UP -v circle -c blue -x 396.0755 -y 318.0207 -z 4
n -t 0.0 -s 155 -S UP -v circle -c blue -x 300.1807 -y 111.80255 -z 4
n -t 0.0 -s 156 -S UP -v circle -c blue -x 203.64014 -y 319.7171 -z 4
n -t 0.0 -s 157 -S UP -v circle -c blue -x 113.64174 -y 33.276558 -z 4
n -t 0.0 -s 158 -S UP -v circle -c blue -x 466.5913 -y 423.32394 -z 4
n -t 0.0 -s 159 -S UP -v circle -c blue -x 428.06763 -y 23.994207 -z 4
n -t 0.0 -s 160 -S UP -v circle -c blue -x 198.73262 -y 262.33963 -z 4
n -t 0.0 -s 161 -S UP -v circle -c blue -x 472.94623 -y 27.862967 -z 4
n -t 0.0 -s 162 -S UP -v circle -c blue -x 329.51376 -y 333.77182 -z 4
n -t 0.0 -s 163 -S UP -v circle -c blue -x 57.351707 -y 422.73645 -z 4
n -t 0.0 -s 164 -S UP -v circle -c blue -x 446.79938 -y 366.6924 -z 4
n -t 0.0 -s 165 -S UP -v circle -c blue -x 147.84851 -y 489.36407 -z 4
n -t 0.0 -s 166 -S UP -v circle -c blue -x 496.08783 -y 422.3569 -z 4
n -t 0.0 -s 167 -S UP -v circle -c blue -x 463.29694 -y 458.92972 -z 4
n -t 0.0 -s 168 -S UP -v circle -c blue -x 283.31152 -y 328.67532 -z 4
n -t 0.0 -s 169 -S UP -v circle -c blue -x 147.60515 -y 60.048462 -z 4
n -t 0.0 -s 170 -S UP -v circle -c blue -x 417.13287 -y 20.284445 -z 4
n -t 0.0 -s 171 -S UP -v circle -c blue -x 126.40503 -y 445.1389 -z 4
n -t 0.0 -s 172 -S UP -v circle -c blue -x 47.285408 -y 474.16995 -z 4
n -t 0.0 -s 173 -S UP -v circle -c blue -x 463.08044 -y 220.96729 -z 4
n -t 0.0 -s 174 -S UP -v circle -c blue -x 12.00521 -y 286.15286 -z 4
n -t 0.0 -s 175 -S UP -v circle -c blue -x 175.52075 -y 433.89682 -z 4
n -t 0.0 -s 176 -S UP -v circle -c blue -x 396.14093 -y 260.4433 -z 4
n -t 0.0 -s 177 -S UP -v circle -c blue -x 384.071 -y 122.91738 -z 4
n -t 0.0 -s 178 -S UP -v circle -c blue -x 235.504 -y 191.18544 -z 4
n -t 0.0 -s 179 -S UP -v circle -c blue -x 339.74774 -y 394.78268 -z 4
n -t 0.0 -s 180 -S UP -v circle -c blue -x 137.98752 -y 208.20108 -z 4
n -t 0.0 -s 181 -S UP -v circle -c blue -x 140.92386 -y 48.366875 -z 4
n -t 0.0 -s 182 -S UP -v circle -c blue -x 250.69856 -y 69.16731 -z 4
n -t 0.0 -s 183 -S UP -v circle -c blue -x 27.079552 -y 68.4453 -z 4
n -t 0.0 -s 184 -S UP -v circle -c blue -x 99.755615 -y 185.84464 -z 4
n -t 0.0 -s 185 -S UP -v circle -c blue -x 335.27655 -y 272.21164 -z 4
n -t 0.0 -s 186 -S UP -v circle -c blue -x 297.62732 -y 324.76163 -z 4
n -t 0.0 -s 187 -S UP -v circle -c blue -x 493.842 -y 60.605675 -z 4
n -t 0.0 -s 188 -S UP -v circle -c blue -x 126.25077 -y 73.44326 -z 4
n -t 0.0 -s 189 -S UP -v circle -c blue -x 88.127075 -y 347.53177 -z 4
n -t 0.0 -s 190 -S UP -v circle -c blue -x 104.167046 -y 85.77311 -z 4
n -t 0.0 -s 191 -S UP -v circle -c blue -x 274.60913 -y 395.81134 -z 4
n -t 0.0 -s 192 -S UP -v circle -c blue -x 366.24344 -y 236.76591 -z 4
n -t 0.0 -s 193 -S UP -v circle -c blue -x 406.1942 -y 22.691935 -z 4
n -t 0.0 -s 194 -S UP -v circle -c blue -x 176.0928 -y 323.69635 -z 4
n -t 0.0 -s 195 -S UP -v circle -c blue -x 107.196686 -y 79.32794 -z 4
n -t 0.0 -s 196 -S UP -v circle -c blue -x 47.116726 -y 441.42224 -z 4
n -t 0.0 -s 197 -S UP -v circle -c blue -x 449.6592 -y 98.18188 -z 4
n -t 0.0 -s 198 -S UP -v circle -c blue -x 28.44742 -y 252.53195 -z 4
n -t 0.0 -s 199 -S UP -v circle -c blue -x 11.653959 -y 216.04169 -z 4
n -t 0.0 -s 200 -S UP -v circle -c blue -x 469.38068 -y 333.7463 -z 4
n -t 0.0 -s 201 -S UP -v circle -c blue -x 175.88234 -y 55.517433 -z 4
n -t 0.0 -s 202 -S UP -v circle -c blue -x 379.81168 -y 148.37152 -z 4
n -t 0.0 -s 203 -S UP -v circle -c blue -x 465.8645 -y 407.61026 -z 4
n -t 0.0 -s 204 -S UP -v circle -c blue -x 466.52094 -y 408.5124 -z 4
n -t 0.0 -s 205 -S UP -v circle -c blue -x 234.56783 -y 236.32463 -z 4
n -t 0.0 -s 206 -S UP -v circle -c blue -x 24.913818 -y 111.64844 -z 4
n -t 0.0 -s 207 -S UP -v circle -c blue -x 263.4353 -y 493.33765 -z 4
n -t 0.0 -s 208 -S UP -v circle -c blue -x 74.185104 -y 473.90457 -z 4
n -t 0.0 -s 209 -S UP -v circle -c blue -x 0.10380149 -y 217.40425 -z 4
n -t 0.0 -s 210 -S UP -v circle -c blue -x 29.240221 -y 220.22003 -z 4
n -t 0.0 -s 211 -S UP -v circle -c blue -x 141.99254 -y 216.36131 -z 4
n -t 0.0 -s 212 -S UP -v circle -c blue -x 135.62015 -y 11.369228 -z 4
n -t 0.0 -s 213 -S UP -v circle -c blue -x 246.43294 -y 317.1252 -z 4
n -t 0.0 -s 214 -S UP -v circle -c blue -x 51.90608 -y 494.5916 -z 4
n -t 0.0 -s 215 -S UP -v circle -c blue -x 131.82074 -y 84.728775 -z 4
n -t 0.0 -s 216 -S UP -v circle -c blue -x 37.55972 -y 12.060791 -z 4
n -t 0.0 -s 217 -S UP -v circle -c blue -x 198.81418 -y 379.9217 -z 4
n -t 0.0 -s 218 -S UP -v circle -c blue -x 0.0179708 -y 116.612434 -z 4
n -t 0.0 -s 219 -S UP -v circle -c blue -x 295.97244 -y 56.80454 -z 4
n -t 0.0 -s 220 -S UP -v circle -c blue -x 222.42001 -y 352.54895 -z 4
n -t 0.0 -s 221 -S UP -v circle -c blue -x 35.21341 -y 118.968636 -z 4
n -t 0.0 -s 222 -S UP -v circle -c blue -x 349.10812 -y 409.86792 -z 4
n -t 0.0 -s 223 -S UP -v circle -c blue -x 113.54178 -y 212.18484 -z 4
n -t 0.0 -s 224 -S UP -v circle -c blue -x 58.697937 -y 50.28716 -z 4
n -t 0.0 -s 225 -S UP -v circle -c blue -x 357.81613 -y 352.28607 -z 4
n -t 0.0 -s 226 -S UP -v circle -c blue -x 329.9419 -y 203.7623 -z 4
n -t 0.0 -s 227 -S UP -v circle -c blue -x 197.73749 -y 272.9132 -z 4
n -t 0.0 -s 228 -S UP -v circle -c blue -x 71.87602 -y 314.04898 -z 4
n -t 0.0 -s 229 -S UP -v circle -c blue -x 212.2834 -y 444.57486 -z 4
n -t 0.0 -s 230 -S UP -v circle -c blue -x 282.09875 -y 363.93024 -z 4
n -t 0.0 -s 231 -S UP -v circle -c blue -x 339.70682 -y 215.27618 -z 4
n -t 0.0 -s 232 -S UP -v circle -c blue -x 442.92294 -y 176.12192 -z 4
n -t 0.0 -s 233 -S UP -v circle -c blue -x 398.87662 -y 166.01071 -z 4
n -t 0.0 -s 234 -S UP -v circle -c blue -x 309.19888 -y 479.13507 -z 4
n -t 0.0 -s 235 -S UP -v circle -c blue -x 27.753056 -y 259.82315 -z 4
n -t 0.0 -s 236 -S UP -v circle -c blue -x 70.63919 -y 161.5039 -z 4
n -t 0.0 -s 237 -S UP -v circle -c blue -x 95.45508 -y 0.024348497 -z 4
n -t 0.0 -s 238 -S UP -v circle -c blue -x 439.49597 -y 449.20724 -z 4
n -t 0.0 -s 239 -S UP -v circle -c blue -x 109.65624 -y 246.49149 -z 4
n -t 0.0 -s 240 -S UP -v circle -c blue -x 367.6326 -y 414.68112 -z 4
n -t 0.0 -s 241 -S UP -v circle -c blue -x 197.60475 -y 174.77264 -z 4
n -t 0.0 -s 242 -S UP -v circle -c blue -x 298.77805 -y 19.844025 -z 4
n -t 0.0 -s 243 -S UP -v circle -c blue -x 143.24779 -y 292.83273 -z 4
n -t 0.0 -s 244 -S UP -v circle -c blue -x 317.61816 -y 466.7716 -z 4
n -t 0.0 -s 245 -S UP -v circle -c blue -x 275.7852 -y 357.5548 -z 4
n -t 0.0 -s 246 -S UP -v circle -c blue -x 340.1178 -y 158.2377 -z 4
n -t 0.0 -s 247 -S UP -v circle -c blue -x 217.20612 -y 196.3223 -z 4
n -t 0.0 -s 248 -S UP -v circle -c blue -x 164.0221 -y 384.90234 -z 4
n -t 0.0 -s 249 -S UP -v circle -c blue -x 153.38582 -y 37.854343 -z 4
n -t 0.0 -s 250 -S UP -v circle -c blue -x 446.98474 -y 58.518646 -z 4
n -t 0.0 -s 1 -S UP -v circle -c red -x 385.52423 -y 185.89827 -z 4
n -t 0.0 -s 250 -S UP -v circle -c blue -x 446.98474 -y 58.518646 -z 4
n -t 0.0 -s 3 -S UP -v circle -c red -x 148.10458 -y 276.20822 -z 4
n -t 0.0 -s 7 -S UP -v circle -c red -x 377.26898 -y 436.4285 -z 4
n -t 0.0 -s 249 -S UP -v circle -c blue -x 153.38582 -y 37.854343 -z 4
n -t 0.0 -s 15 -S UP -v circle -c blue -x 368.48532 -y 41.0454 -z 4
n -t 0.0 -s 31 -S UP -v circle -c blue -x 132.04196 -y 89.75187 -z 4
n -t 0.0 -s 63 -S UP -v circle -c blue -x 466.9725 -y 194.4116 -z 4
n -t 0.0 -s 127 -S UP -v circle -c blue -x 464.6175 -y 383.99756 -z 4
n -t 0.0 -s 128 -S UP -v circle -c blue -x 334.52368 -y 303.6749 -z 4
n -t 0.0 -s 64 -S UP -v circle -c blue -x 222.46426 -y 266.72546 -z 4
n -t 0.0 -s 129 -S UP -v circle -c blue -x 297.99493 -y 474.77573 -z 4
n -t 0.0 -s 130 -S UP -v circle -c blue -x 322.97983 -y 485.90018 -z 4
n -t 0.0 -s 32 -S UP -v circle -c blue -x 219.56468 -y 296.6206 -z 4
n -t 0.0 -s 65 -S UP -v circle -c blue -x 238.56828 -y 303.13898 -z 4
n -t 0.0 -s 131 -S UP -v circle -c blue -x 114.38525 -y 190.77483 -z 4
n -t 0.0 -s 132 -S UP -v circle -c blue -x 269.63516 -y 225.54266 -z 4
n -t 0.0 -s 66 -S UP -v circle -c blue -x 120.66522 -y 489.27527 -z 4
n -t 0.0 -s 133 -S UP -v circle -c blue -x 363.1906 -y 380.6346 -z 4
n -t 0.0 -s 134 -S UP -v circle -c blue -x 490.67245 -y 455.9952 -z 4
n -t 0.0 -s 16 -S UP -v circle -c blue -x 166.95541 -y 267.09033 -z 4
n -t 0.0 -s 33 -S UP -v circle -c blue -x 223.32939 -y 181.02289 -z 4
n -t 0.0 -s 67 -S UP -v circle -c blue -x 341.7291 -y 447.99356 -z 4
n -t 0.0 -s 135 -S UP -v circle -c blue -x 436.12558 -y 80.7904 -z 4
n -t 0.0 -s 136 -S UP -v circle -c blue -x 58.13289 -y 104.34073 -z 4
n -t 0.0 -s 68 -S UP -v circle -c blue -x 472.52048 -y 232.41982 -z 4
n -t 0.0 -s 137 -S UP -v circle -c blue -x 334.4525 -y 422.15427 -z 4
n -t 0.0 -s 138 -S UP -v circle -c blue -x 169.25583 -y 377.26038 -z 4
n -t 0.0 -s 34 -S UP -v circle -c blue -x 315.47937 -y 402.13953 -z 4
n -t 0.0 -s 69 -S UP -v circle -c blue -x 102.35414 -y 34.97416 -z 4
n -t 0.0 -s 139 -S UP -v circle -c blue -x 317.3534 -y 190.27385 -z 4
n -t 0.0 -s 140 -S UP -v circle -c blue -x 375.9076 -y 477.67603 -z 4
n -t 0.0 -s 70 -S UP -v circle -c blue -x 487.41885 -y 104.85676 -z 4
n -t 0.0 -s 141 -S UP -v circle -c blue -x 89.63385 -y 366.0314 -z 4
n -t 0.0 -s 142 -S UP -v circle -c blue -x 25.271803 -y 269.08963 -z 4
n -t 0.0 -s 8 -S UP -v circle -c red -x 220.40251 -y 176.3269 -z 4
n -t 0.0 -s 17 -S UP -v circle -c blue -x 210.71637 -y 329.07098 -z 4
n -t 0.0 -s 35 -S UP -v circle -c blue -x 13.623744 -y 61.790466 -z 4
n -t 0.0 -s 71 -S UP -v circle -c blue -x 1.8922687 -y 19.24616 -z 4
n -t 0.0 -s 143 -S UP -v circle -c blue -x 260.73215 -y 383.37094 -z 4
n -t 0.0 -s 144 -S UP -v circle -c blue -x 456.69458 -y 245.63312 -z 4
n -t 0.0 -s 72 -S UP -v circle -c blue -x 413.2446 -y 296.35175 -z 4
n -t 0.0 -s 145 -S UP -v circle -c blue -x 79.8724 -y 3.964007 -z 4
n -t 0.0 -s 146 -S UP -v circle -c blue -x 187.16377 -y 166.40884 -z 4
n -t 0.0 -s 36 -S UP -v circle -c blue -x 253.74184 -y 429.05963 -z 4
n -t 0.0 -s 73 -S UP -v circle -c blue -x 288.28677 -y 332.49014 -z 4
n -t 0.0 -s 147 -S UP -v circle -c blue -x 455.5081 -y 193.04234 -z 4
n -t 0.0 -s 148 -S UP -v circle -c blue -x 79.91928 -y 404.5202 -z 4
n -t 0.0 -s 74 -S UP -v circle -c blue -x 139.10898 -y 458.71793 -z 4
n -t 0.0 -s 149 -S UP -v circle -c blue -x 436.97913 -y 463.66376 -z 4
n -t 0.0 -s 150 -S UP -v circle -c blue -x 274.8961 -y 499.44318 -z 4
n -t 0.0 -s 18 -S UP -v circle -c blue -x 341.28104 -y 481.51758 -z 4
n -t 0.0 -s 37 -S UP -v circle -c blue -x 494.63907 -y 323.75018 -z 4
n -t 0.0 -s 75 -S UP -v circle -c blue -x 115.11818 -y 99.33755 -z 4
n -t 0.0 -s 151 -S UP -v circle -c blue -x 38.28162 -y 452.2134 -z 4
n -t 0.0 -s 152 -S UP -v circle -c blue -x 406.03375 -y 289.67953 -z 4
n -t 0.0 -s 76 -S UP -v circle -c blue -x 117.79934 -y 76.081696 -z 4
n -t 0.0 -s 153 -S UP -v circle -c blue -x 438.43073 -y 70.67698 -z 4
n -t 0.0 -s 154 -S UP -v circle -c blue -x 396.0755 -y 318.0207 -z 4
n -t 0.0 -s 38 -S UP -v circle -c blue -x 236.17204 -y 290.65005 -z 4
n -t 0.0 -s 77 -S UP -v circle -c blue -x 479.2384 -y 369.796 -z 4
n -t 0.0 -s 155 -S UP -v circle -c blue -x 300.1807 -y 111.80255 -z 4
n -t 0.0 -s 156 -S UP -v circle -c blue -x 203.64014 -y 319.7171 -z 4
n -t 0.0 -s 78 -S UP -v circle -c blue -x 349.439 -y 417.50827 -z 4
n -t 0.0 -s 157 -S UP -v circle -c blue -x 113.64174 -y 33.276558 -z 4
n -t 0.0 -s 158 -S UP -v circle -c blue -x 466.5913 -y 423.32394 -z 4
n -t 0.0 -s 4 -S UP -v circle -c red -x 292.6865 -y 169.20065 -z 4
n -t 0.0 -s 9 -S UP -v circle -c blue -x 440.33734 -y 458.90054 -z 4
n -t 0.0 -s 248 -S UP -v circle -c blue -x 164.0221 -y 384.90234 -z 4
n -t 0.0 -s 19 -S UP -v circle -c blue -x 478.79947 -y 272.87256 -z 4
n -t 0.0 -s 39 -S UP -v circle -c blue -x 150.33678 -y 400.71915 -z 4
n -t 0.0 -s 79 -S UP -v circle -c blue -x 331.63013 -y 446.3768 -z 4
n -t 0.0 -s 159 -S UP -v circle -c blue -x 428.06763 -y 23.994207 -z 4
n -t 0.0 -s 160 -S UP -v circle -c blue -x 198.73262 -y 262.33963 -z 4
n -t 0.0 -s 80 -S UP -v circle -c blue -x 346.92224 -y 409.4312 -z 4
n -t 0.0 -s 161 -S UP -v circle -c blue -x 472.94623 -y 27.862967 -z 4
n -t 0.0 -s 162 -S UP -v circle -c blue -x 329.51376 -y 333.77182 -z 4
n -t 0.0 -s 40 -S UP -v circle -c blue -x 195.96252 -y 158.97295 -z 4
n -t 0.0 -s 81 -S UP -v circle -c blue -x 111.63139 -y 224.81787 -z 4
n -t 0.0 -s 163 -S UP -v circle -c blue -x 57.351707 -y 422.73645 -z 4
n -t 0.0 -s 164 -S UP -v circle -c blue -x 446.79938 -y 366.6924 -z 4
n -t 0.0 -s 82 -S UP -v circle -c blue -x 473.5016 -y 28.592735 -z 4
n -t 0.0 -s 165 -S UP -v circle -c blue -x 147.84851 -y 489.36407 -z 4
n -t 0.0 -s 166 -S UP -v circle -c blue -x 496.08783 -y 422.3569 -z 4
n -t 0.0 -s 20 -S UP -v circle -c blue -x 263.1168 -y 461.81207 -z 4
n -t 0.0 -s 41 -S UP -v circle -c blue -x 63.970684 -y 266.34338 -z 4
n -t 0.0 -s 83 -S UP -v circle -c blue -x 482.3847 -y 112.74314 -z 4
n -t 0.0 -s 167 -S UP -v circle -c blue -x 463.29694 -y 458.92972 -z 4
n -t 0.0 -s 168 -S UP -v circle -c blue -x 283.31152 -y 328.67532 -z 4
n -t 0.0 -s 84 -S UP -v circle -c blue -x 134.02357 -y 380.0916 -z 4
n -t 0.0 -s 169 -S UP -v circle -c blue -x 147.60515 -y 60.048462 -z 4
n -t 0.0 -s 170 -S UP -v circle -c blue -x 417.13287 -y 20.284445 -z 4
n -t 0.0 -s 42 -S UP -v circle -c blue -x 378.63202 -y 229.47327 -z 4
n -t 0.0 -s 85 -S UP -v circle -c blue -x 411.43884 -y 69.14941 -z 4
n -t 0.0 -s 171 -S UP -v circle -c blue -x 126.40503 -y 445.1389 -z 4
n -t 0.0 -s 172 -S UP -v circle -c blue -x 47.285408 -y 474.16995 -z 4
n -t 0.0 -s 86 -S UP -v circle -c blue -x 211.49135 -y 294.8306 -z 4
n -t 0.0 -s 173 -S UP -v circle -c blue -x 463.08044 -y 220.96729 -z 4
n -t 0.0 -s 174 -S UP -v circle -c blue -x 12.00521 -y 286.15286 -z 4
n -t 0.0 -s 10 -S UP -v circle -c blue -x 299.3939 -y 168.65953 -z 4
n -t 0.0 -s 21 -S UP -v circle -c blue -x 354.56567 -y 478.34573 -z 4
n -t 0.0 -s 247 -S UP -v circle -c blue -x 217.20612 -y 196.3223 -z 4
n -t 0.0 -s 43 -S UP -v circle -c blue -x 53.18028 -y 32.397865 -z 4
n -t 0.0 -s 87 -S UP -v circle -c blue -x 60.568897 -y 483.02713 -z 4
n -t 0.0 -s 175 -S UP -v circle -c blue -x 175.52075 -y 433.89682 -z 4
n -t 0.0 -s 176 -S UP -v circle -c blue -x 396.14093 -y 260.4433 -z 4
n -t 0.0 -s 88 -S UP -v circle -c blue -x 59.81529 -y 9.767413 -z 4
n -t 0.0 -s 177 -S UP -v circle -c blue -x 384.071 -y 122.91738 -z 4
n -t 0.0 -s 178 -S UP -v circle -c blue -x 235.504 -y 191.18544 -z 4
n -t 0.0 -s 44 -S UP -v circle -c blue -x 388.283 -y 448.2233 -z 4
n -t 0.0 -s 89 -S UP -v circle -c blue -x 393.50162 -y 306.41476 -z 4
n -t 0.0 -s 179 -S UP -v circle -c blue -x 339.74774 -y 394.78268 -z 4
n -t 0.0 -s 180 -S UP -v circle -c blue -x 137.98752 -y 208.20108 -z 4
n -t 0.0 -s 90 -S UP -v circle -c blue -x 98.9283 -y 9.955555 -z 4
n -t 0.0 -s 181 -S UP -v circle -c blue -x 140.92386 -y 48.366875 -z 4
n -t 0.0 -s 182 -S UP -v circle -c blue -x 250.69856 -y 69.16731 -z 4
n -t 0.0 -s 22 -S UP -v circle -c blue -x 231.13725 -y 141.35898 -z 4
n -t 0.0 -s 45 -S UP -v circle -c blue -x 72.753876 -y 472.1589 -z 4
n -t 0.0 -s 91 -S UP -v circle -c blue -x 329.43143 -y 486.39984 -z 4
n -t 0.0 -s 183 -S UP -v circle -c blue -x 27.079552 -y 68.4453 -z 4
n -t 0.0 -s 184 -S UP -v circle -c blue -x 99.755615 -y 185.84464 -z 4
n -t 0.0 -s 92 -S UP -v circle -c blue -x 159.20618 -y 38.897663 -z 4
n -t 0.0 -s 185 -S UP -v circle -c blue -x 335.27655 -y 272.21164 -z 4
n -t 0.0 -s 186 -S UP -v circle -c blue -x 297.62732 -y 324.76163 -z 4
n -t 0.0 -s 46 -S UP -v circle -c blue -x 92.84699 -y 399.3555 -z 4
n -t 0.0 -s 93 -S UP -v circle -c blue -x 318.77542 -y 423.59607 -z 4
n -t 0.0 -s 187 -S UP -v circle -c blue -x 493.842 -y 60.605675 -z 4
n -t 0.0 -s 188 -S UP -v circle -c blue -x 126.25077 -y 73.44326 -z 4
n -t 0.0 -s 94 -S UP -v circle -c blue -x 104.84806 -y 272.15588 -z 4
n -t 0.0 -s 189 -S UP -v circle -c blue -x 88.127075 -y 347.53177 -z 4
n -t 0.0 -s 190 -S UP -v circle -c blue -x 104.167046 -y 85.77311 -z 4
n -t 0.0 -s 2 -S UP -v circle -c red -x 366.87994 -y 233.61182 -z 4
n -t 0.0 -s 5 -S UP -v circle -c red -x 415.41794 -y 75.16122 -z 4
n -t 0.0 -s 246 -S UP -v circle -c blue -x 340.1178 -y 158.2377 -z 4
n -t 0.0 -s 11 -S UP -v circle -c blue -x 224.1806 -y 75.5856 -z 4
n -t 0.0 -s 23 -S UP -v circle -c blue -x 223.52687 -y 385.2825 -z 4
n -t 0.0 -s 47 -S UP -v circle -c blue -x 131.95851 -y 3.8291514 -z 4
n -t 0.0 -s 95 -S UP -v circle -c blue -x 480.0161 -y 378.9626 -z 4
n -t 0.0 -s 191 -S UP -v circle -c blue -x 274.60913 -y 395.81134 -z 4
n -t 0.0 -s 192 -S UP -v circle -c blue -x 366.24344 -y 236.76591 -z 4
n -t 0.0 -s 96 -S UP -v circle -c blue -x 339.23123 -y 495.82965 -z 4
n -t 0.0 -s 193 -S UP -v circle -c blue -x 406.1942 -y 22.691935 -z 4
n -t 0.0 -s 194 -S UP -v circle -c blue -x 176.0928 -y 323.69635 -z 4
n -t 0.0 -s 48 -S UP -v circle -c blue -x 141.24898 -y 183.75102 -z 4
n -t 0.0 -s 97 -S UP -v circle -c blue -x 51.87562 -y 374.94977 -z 4
n -t 0.0 -s 195 -S UP -v circle -c blue -x 107.196686 -y 79.32794 -z 4
n -t 0.0 -s 196 -S UP -v circle -c blue -x 47.116726 -y 441.42224 -z 4
n -t 0.0 -s 98 -S UP -v circle -c blue -x 85.13451 -y 407.22357 -z 4
n -t 0.0 -s 197 -S UP -v circle -c blue -x 449.6592 -y 98.18188 -z 4
n -t 0.0 -s 198 -S UP -v circle -c blue -x 28.44742 -y 252.53195 -z 4
n -t 0.0 -s 24 -S UP -v circle -c blue -x 298.26126 -y 239.09625 -z 4
n -t 0.0 -s 49 -S UP -v circle -c blue -x 87.50689 -y 285.05573 -z 4
n -t 0.0 -s 99 -S UP -v circle -c blue -x 202.30818 -y 195.24503 -z 4
n -t 0.0 -s 199 -S UP -v circle -c blue -x 11.653959 -y 216.04169 -z 4
n -t 0.0 -s 200 -S UP -v circle -c blue -x 469.38068 -y 333.7463 -z 4
n -t 0.0 -s 100 -S UP -v circle -c blue -x 107.19454 -y 329.02737 -z 4
n -t 0.0 -s 201 -S UP -v circle -c blue -x 175.88234 -y 55.517433 -z 4
n -t 0.0 -s 202 -S UP -v circle -c blue -x 379.81168 -y 148.37152 -z 4
n -t 0.0 -s 50 -S UP -v circle -c blue -x 143.8486 -y 452.1596 -z 4
n -t 0.0 -s 101 -S UP -v circle -c blue -x 318.41614 -y 295.18945 -z 4
n -t 0.0 -s 203 -S UP -v circle -c blue -x 465.8645 -y 407.61026 -z 4
n -t 0.0 -s 204 -S UP -v circle -c blue -x 466.52094 -y 408.5124 -z 4
n -t 0.0 -s 102 -S UP -v circle -c blue -x 438.2706 -y 193.28683 -z 4
n -t 0.0 -s 205 -S UP -v circle -c blue -x 234.56783 -y 236.32463 -z 4
n -t 0.0 -s 206 -S UP -v circle -c blue -x 24.913818 -y 111.64844 -z 4
n -t 0.0 -s 12 -S UP -v circle -c blue -x 340.77914 -y 262.89276 -z 4
n -t 0.0 -s 25 -S UP -v circle -c blue -x 405.66174 -y 204.81535 -z 4
n -t 0.0 -s 51 -S UP -v circle -c blue -x 400.6605 -y 233.09705 -z 4
n -t 0.0 -s 103 -S UP -v circle -c blue -x 332.61942 -y 343.5063 -z 4
n -t 0.0 -s 207 -S UP -v circle -c blue -x 263.4353 -y 493.33765 -z 4
n -t 0.0 -s 208 -S UP -v circle -c blue -x 74.185104 -y 473.90457 -z 4
n -t 0.0 -s 104 -S UP -v circle -c blue -x 312.99008 -y 248.47853 -z 4
n -t 0.0 -s 209 -S UP -v circle -c blue -x 0.10380149 -y 217.40425 -z 4
n -t 0.0 -s 210 -S UP -v circle -c blue -x 29.240221 -y 220.22003 -z 4
n -t 0.0 -s 52 -S UP -v circle -c blue -x 260.6854 -y 193.35222 -z 4
n -t 0.0 -s 105 -S UP -v circle -c blue -x 28.14269 -y 237.53667 -z 4