# Trace file generated by Jist/Swans Version 1.0.6. at Fri Jul 26 18:48:47 BRT 2013
V -t * -v 1.0a5 -a 0
W -t * -x 410 -y 410
A -t * -n 1 -p 0 -o 0xffffffff -c 31 -a 1
A -t * -h 1 -m 2147483647 -s 0
n -t 0.0 -s 1 -S UP -v circle -c red -x 400.75644 -y 374.6387 -z 4
n -t 0.0 -s 2 -S UP -v circle -c red -x 263.35883 -y 56.30046 -z 4
n -t 0.0 -s 3 -S UP -v circle -c red -x 183.57196 -y 334.90015 -z 4
n -t 0.0 -s 4 -S UP -v circle -c red -x 24.379461 -y 454.90887 -z 4
n -t 0.0 -s 5 -S UP -v circle -c red -x 21.540642 -y 237.81288 -z 4
n -t 0.0 -s 6 -S UP -v circle -c red -x 450.3915 -y 62.74271 -z 4
n -t 0.0 -s 7 -S UP -v circle -c red -x 445.05518 -y 158.61777 -z 4
n -t 0.0 -s 8 -S UP -v circle -c red -x 315.9034 -y 97.019226 -z 4
n -t 0.0 -s 9 -S UP -v circle -c blue -x 121.195076 -y 15.791714 -z 4
n -t 0.0 -s 10 -S UP -v circle -c blue -x 381.65857 -y 140.52113 -z 4
n -t 0.0 -s 11 -S UP -v circle -c blue -x 29.11982 -y 283.64508 -z 4
n -t 0.0 -s 12 -S UP -v circle -c blue -x 244.65889 -y 385.49072 -z 4
n -t 0.0 -s 13 -S UP -v circle -c blue -x 182.26083 -y 291.37833 -z 4
n -t 0.0 -s 14 -S UP -v circle -c blue -x 58.733643 -y 80.00594 -z 4
n -t 0.0 -s 15 -S UP -v circle -c blue -x 276.00073 -y 232.1611 -z 4
n -t 0.0 -s 16 -S UP -v circle -c blue -x 297.83057 -y 143.67667 -z 4
n -t 0.0 -s 17 -S UP -v circle -c blue -x 294.61328 -y 291.85742 -z 4
n -t 0.0 -s 18 -S UP -v circle -c blue -x 152.52016 -y 342.8712 -z 4
n -t 0.0 -s 19 -S UP -v circle -c blue -x 155.69531 -y 362.94366 -z 4
n -t 0.0 -s 20 -S UP -v circle -c blue -x 30.402153 -y 387.48773 -z 4
n -t 0.0 -s 21 -S UP -v circle -c blue -x 469.0968 -y 463.57382 -z 4
n -t 0.0 -s 22 -S UP -v circle -c blue -x 18.594057 -y 31.226843 -z 4
n -t 0.0 -s 23 -S UP -v circle -c blue -x 122.5709 -y 336.68173 -z 4
n -t 0.0 -s 24 -S UP -v circle -c blue -x 286.3641 -y 11.046171 -z 4
n -t 0.0 -s 25 -S UP -v circle -c blue -x 102.34592 -y 259.9662 -z 4
n -t 0.0 -s 26 -S UP -v circle -c blue -x 288.0303 -y 445.56894 -z 4
n -t 0.0 -s 27 -S UP -v circle -c blue -x 5.0624013 -y 378.50638 -z 4
n -t 0.0 -s 28 -S UP -v circle -c blue -x 229.95564 -y 459.19193 -z 4
n -t 0.0 -s 29 -S UP -v circle -c blue -x 381.7178 -y 49.963085 -z 4
n -t 0.0 -s 30 -S UP -v circle -c blue -x 104.98661 -y 101.955086 -z 4
n -t 0.0 -s 31 -S UP -v circle -c blue -x 275.29318 -y 213.64119 -z 4
n -t 0.0 -s 32 -S UP -v circle -c blue -x 366.85736 -y 474.2874 -z 4
n -t 0.0 -s 33 -S UP -v circle -c blue -x 214.67221 -y 3.353566 -z 4
n -t 0.0 -s 34 -S UP -v circle -c blue -x 14.447927 -y 430.86273 -z 4
n -t 0.0 -s 35 -S UP -v circle -c blue -x 18.550278 -y 87.71598 -z 4
n -t 0.0 -s 36 -S UP -v circle -c blue -x 409.56735 -y 255.25877 -z 4
n -t 0.0 -s 37 -S UP -v circle -c blue -x 46.71851 -y 56.328236 -z 4
n -t 0.0 -s 38 -S UP -v circle -c blue -x 45.037598 -y 154.1144 -z 4
n -t 0.0 -s 39 -S UP -v circle -c blue -x 132.01776 -y 365.80927 -z 4
n -t 0.0 -s 40 -S UP -v circle -c blue -x 374.88498 -y 289.17178 -z 4
n -t 0.0 -s 41 -S UP -v circle -c blue -x 196.21083 -y 103.84253 -z 4
n -t 0.0 -s 42 -S UP -v circle -c blue -x 182.68103 -y 32.05401 -z 4
n -t 0.0 -s 43 -S UP -v circle -c blue -x 226.01938 -y 333.67737 -z 4
n -t 0.0 -s 44 -S UP -v circle -c blue -x 194.49287 -y 209.88173 -z 4
n -t 0.0 -s 45 -S UP -v circle -c blue -x 82.807365 -y 405.78656 -z 4
n -t 0.0 -s 46 -S UP -v circle -c blue -x 191.16118 -y 290.83463 -z 4
n -t 0.0 -s 47 -S UP -v circle -c blue -x 379.24484 -y 0.8993149 -z 4
n -t 0.0 -s 48 -S UP -v circle -c blue -x 372.06897 -y 304.40753 -z 4
n -t 0.0 -s 49 -S UP -v circle -c blue -x 459.3191 -y 331.15314 -z 4
n -t 0.0 -s 50 -S UP -v circle -c blue -x 105.234535 -y 79.22861 -z 4
n -t 0.0 -s 51 -S UP -v circle -c blue -x 312.03073 -y 428.80978 -z 4
n -t 0.0 -s 52 -S UP -v circle -c blue -x 332.1777 -y 225.6704 -z 4
n -t 0.0 -s 53 -S UP -v circle -c blue -x 473.95978 -y 498.47662 -z 4
n -t 0.0 -s 54 -S UP -v circle -c blue -x 200.97908 -y 265.79697 -z 4
n -t 0.0 -s 55 -S UP -v circle -c blue -x 188.7413 -y 376.1132 -z 4
n -t 0.0 -s 56 -S UP -v circle -c blue -x 77.37905 -y 80.099014 -z 4
n -t 0.0 -s 57 -S UP -v circle -c blue -x 91.66801 -y 101.773796 -z 4
n -t 0.0 -s 58 -S UP -v circle -c blue -x 336.42624 -y 270.55557 -z 4
n -t 0.0 -s 59 -S UP -v circle -c blue -x 141.64024 -y 371.9654 -z 4
n -t 0.0 -s 60 -S UP -v circle -c blue -x 100.562874 -y 340.34314 -z 4
n -t 0.0 -s 61 -S UP -v circle -c blue -x 89.20807 -y 239.04836 -z 4
n -t 0.0 -s 62 -S UP -v circle -c blue -x 253.28142 -y 430.4514 -z 4
n -t 0.0 -s 63 -S UP -v circle -c blue -x 224.36855 -y 190.07986 -z 4
n -t 0.0 -s 64 -S UP -v circle -c blue -x 189.45515 -y 486.94937 -z 4
n -t 0.0 -s 65 -S UP -v circle -c blue -x 9.165615 -y 385.12888 -z 4
n -t 0.0 -s 66 -S UP -v circle -c blue -x 237.66699 -y 125.013115 -z 4
n -t 0.0 -s 67 -S UP -v circle -c blue -x 353.2405 -y 108.0592 -z 4
n -t 0.0 -s 68 -S UP -v circle -c blue -x 309.56082 -y 408.3422 -z 4
n -t 0.0 -s 69 -S UP -v circle -c blue -x 112.74075 -y 272.19165 -z 4
n -t 0.0 -s 70 -S UP -v circle -c blue -x 454.326 -y 37.46587 -z 4
n -t 0.0 -s 71 -S UP -v circle -c blue -x 379.04324 -y 293.6725 -z 4
n -t 0.0 -s 72 -S UP -v circle -c blue -x 160.49841 -y 385.81583 -z 4
n -t 0.0 -s 73 -S UP -v circle -c blue -x 10.39967 -y 359.77664 -z 4
n -t 0.0 -s 74 -S UP -v circle -c blue -x 294.6029 -y 497.40085 -z 4
n -t 0.0 -s 75 -S UP -v circle -c blue -x 250.87138 -y 164.19395 -z 4
n -t 0.0 -s 76 -S UP -v circle -c blue -x 268.74823 -y 459.48154 -z 4
n -t 0.0 -s 77 -S UP -v circle -c blue -x 272.98212 -y 291.4374 -z 4
n -t 0.0 -s 78 -S UP -v circle -c blue -x 213.77242 -y 343.76645 -z 4
n -t 0.0 -s 79 -S UP -v circle -c blue -x 286.75342 -y 116.18742 -z 4
n -t 0.0 -s 80 -S UP -v circle -c blue -x 107.27757 -y 112.22741 -z 4
n -t 0.0 -s 81 -S UP -v circle -c blue -x 433.7723 -y 247.37221 -z 4
n -t 0.0 -s 82 -S UP -v circle -c blue -x 277.91574 -y 161.49777 -z 4
n -t 0.0 -s 83 -S UP -v circle -c blue -x 353.42145 -y 121.265205 -z 4
n -t 0.0 -s 84 -S UP -v circle -c blue -x 219.32268 -y 21.736681 -z 4
n -t 0.0 -s 85 -S UP -v circle -c blue -x 384.32462 -y 411.4659 -z 4
n -t 0.0 -s 86 -S UP -v circle -c blue -x 494.54794 -y 81.52804 -z 4
n -t 0.0 -s 87 -S UP -v circle -c blue -x 279.55078 -y 328.3711 -z 4
n -t 0.0 -s 88 -S UP -v circle -c blue -x 169.79787 -y 115.4739 -z 4
n -t 0.0 -s 89 -S UP -v circle -c blue -x 243.498 -y 377.1297 -z 4
n -t 0.0 -s 90 -S UP -v circle -c blue -x 464.5786 -y 92.22543 -z 4
n -t 0.0 -s 91 -S UP -v circle -c blue -x 83.14216 -y 5.0299764 -z 4
n -t 0.0 -s 92 -S UP -v circle -c blue -x 353.3704 -y 320.2854 -z 4
n -t 0.0 -s 93 -S UP -v circle -c blue -x 340.18542 -y 219.15645 -z 4
n -t 0.0 -s 94 -S UP -v circle -c blue -x 465.9424 -y 490.47488 -z 4
n -t 0.0 -s 95 -S UP -v circle -c blue -x 84.442314 -y 388.77713 -z 4
n -t 0.0 -s 96 -S UP -v circle -c blue -x 253.17892 -y 226.87599 -z 4
n -t 0.0 -s 97 -S UP -v circle -c blue -x 495.63712 -y 158.51814 -z 4
n -t 0.0 -s 98 -S UP -v circle -c blue -x 261.3642 -y 202.67561 -z 4
n -t 0.0 -s 99 -S UP -v circle -c blue -x 200.89694 -y 305.6244 -z 4
n -t 0.0 -s 100 -S UP -v circle -c blue -x 168.4914 -y 389.90933 -z 4
n -t 0.0 -s 101 -S UP -v circle -c blue -x 321.05994 -y 243.6128 -z 4
n -t 0.0 -s 102 -S UP -v circle -c blue -x 214.22858 -y 229.85011 -z 4
n -t 0.0 -s 103 -S UP -v circle -c blue -x 180.1019 -y 244.94002 -z 4
n -t 0.0 -s 104 -S UP -v circle -c blue -x 213.28899 -y 156.8455 -z 4
n -t 0.0 -s 105 -S UP -v circle -c blue -x 260.3366 -y 264.92526 -z 4
n -t 0.0 -s 106 -S UP -v circle -c blue -x 197.4014 -y 416.86185 -z 4
n -t 0.0 -s 107 -S UP -v circle -c blue -x 220.5663 -y 459.51382 -z 4
n -t 0.0 -s 108 -S UP -v circle -c blue -x 30.829132 -y 262.8653 -z 4
n -t 0.0 -s 109 -S UP -v circle -c blue -x 106.242714 -y 210.39922 -z 4
n -t 0.0 -s 110 -S UP -v circle -c blue -x 290.10504 -y 113.41408 -z 4
n -t 0.0 -s 111 -S UP -v circle -c blue -x 358.3247 -y 85.84815 -z 4
n -t 0.0 -s 112 -S UP -v circle -c blue -x 171.68204 -y 445.3454 -z 4
n -t 0.0 -s 113 -S UP -v circle -c blue -x 201.4499 -y 456.02368 -z 4
n -t 0.0 -s 114 -S UP -v circle -c blue -x 377.57877 -y 84.05402 -z 4
n -t 0.0 -s 115 -S UP -v circle -c blue -x 160.03165 -y 252.86046 -z 4
n -t 0.0 -s 116 -S UP -v circle -c blue -x 444.55185 -y 19.336342 -z 4
n -t 0.0 -s 117 -S UP -v circle -c blue -x 2.8891563 -y 70.22041 -z 4
n -t 0.0 -s 118 -S UP -v circle -c blue -x 497.2585 -y 235.83049 -z 4
n -t 0.0 -s 119 -S UP -v circle -c blue -x 160.1459 -y 167.20193 -z 4
n -t 0.0 -s 120 -S UP -v circle -c blue -x 270.3847 -y 215.3587 -z 4
n -t 0.0 -s 121 -S UP -v circle -c blue -x 139.70772 -y 91.57407 -z 4
n -t 0.0 -s 122 -S UP -v circle -c blue -x 113.590004 -y 365.55615 -z 4
n -t 0.0 -s 123 -S UP -v circle -c blue -x 111.15917 -y 230.2925 -z 4
n -t 0.0 -s 124 -S UP -v circle -c blue -x 150.83203 -y 112.57097 -z 4
n -t 0.0 -s 125 -S UP -v circle -c blue -x 31.08868 -y 417.28122 -z 4
n -t 0.0 -s 126 -S UP -v circle -c blue -x 451.34244 -y 183.79984 -z 4
n -t 0.0 -s 127 -S UP -v circle -c blue -x 481.54526 -y 355.94012 -z 4
n -t 0.0 -s 128 -S UP -v circle -c blue -x 302.08005 -y 203.97595 -z 4
n -t 0.0 -s 129 -S UP -v circle -c blue -x 50.61206 -y 14.399081 -z 4
n -t 0.0 -s 130 -S UP -v circle -c blue -x 74.41965 -y 349.78537 -z 4
n -t 0.0 -s 131 -S UP -v circle -c blue -x 236.20605 -y 318.05917 -z 4
n -t 0.0 -s 132 -S UP -v circle -c blue -x 304.3709 -y 5.8209896 -z 4
n -t 0.0 -s 133 -S UP -v circle -c blue -x 128.62212 -y 37.558765 -z 4
n -t 0.0 -s 134 -S UP -v circle -c blue -x 63.66864 -y 150.29964 -z 4
n -t 0.0 -s 135 -S UP -v circle -c blue -x 268.6601 -y 165.51968 -z 4
n -t 0.0 -s 136 -S UP -v circle -c blue -x 276.2347 -y 170.71033 -z 4
n -t 0.0 -s 137 -S UP -v circle -c blue -x 73.22466 -y 105.263176 -z 4
n -t 0.0 -s 138 -S UP -v circle -c blue -x 423.0651 -y 276.51294 -z 4
n -t 0.0 -s 139 -S UP -v circle -c blue -x 423.07043 -y 495.5563 -z 4
n -t 0.0 -s 140 -S UP -v circle -c blue -x 100.515305 -y 283.18643 -z 4
n -t 0.0 -s 141 -S UP -v circle -c blue -x 264.0745 -y 452.22324 -z 4
n -t 0.0 -s 142 -S UP -v circle -c blue -x 228.90895 -y 395.29065 -z 4
n -t 0.0 -s 143 -S UP -v circle -c blue -x 347.42804 -y 178.43303 -z 4
n -t 0.0 -s 144 -S UP -v circle -c blue -x 106.716934 -y 407.6501 -z 4
n -t 0.0 -s 145 -S UP -v circle -c blue -x 231.02223 -y 437.39218 -z 4
n -t 0.0 -s 146 -S UP -v circle -c blue -x 31.29211 -y 376.1258 -z 4
n -t 0.0 -s 147 -S UP -v circle -c blue -x 456.8074 -y 474.2064 -z 4
n -t 0.0 -s 148 -S UP -v circle -c blue -x 351.01312 -y 21.4777 -z 4
n -t 0.0 -s 149 -S UP -v circle -c blue -x 471.97565 -y 446.4399 -z 4
n -t 0.0 -s 150 -S UP -v circle -c blue -x 121.104065 -y 121.24848 -z 4
n -t 0.0 -s 151 -S UP -v circle -c blue -x 57.581543 -y 377.44727 -z 4
n -t 0.0 -s 152 -S UP -v circle -c blue -x 231.45148 -y 201.05734 -z 4
n -t 0.0 -s 153 -S UP -v circle -c blue -x 190.99033 -y 83.36696 -z 4
n -t 0.0 -s 154 -S UP -v circle -c blue -x 489.2208 -y 454.76804 -z 4
n -t 0.0 -s 155 -S UP -v circle -c blue -x 189.83263 -y 467.6781 -z 4
n -t 0.0 -s 156 -S UP -v circle -c blue -x 131.45474 -y 335.20343 -z 4
n -t 0.0 -s 157 -S UP -v circle -c blue -x 448.64014 -y 198.78825 -z 4
n -t 0.0 -s 158 -S UP -v circle -c blue -x 127.27547 -y 456.88022 -z 4
n -t 0.0 -s 159 -S UP -v circle -c blue -x 485.9163 -y 32.049774 -z 4
n -t 0.0 -s 160 -S UP -v circle -c blue -x 99.659 -y 219.0229 -z 4
n -t 0.0 -s 161 -S UP -v circle -c blue -x 12.127399 -y 252.1261 -z 4
n -t 0.0 -s 162 -S UP -v circle -c blue -x 251.53848 -y 481.2223 -z 4
n -t 0.0 -s 163 -S UP -v circle -c blue -x 318.23575 -y 262.42892 -z 4
n -t 0.0 -s 164 -S UP -v circle -c blue -x 248.44714 -y 131.79457 -z 4
n -t 0.0 -s 165 -S UP -v circle -c blue -x 472.3786 -y 251.53142 -z 4
n -t 0.0 -s 166 -S UP -v circle -c blue -x 72.93883 -y 367.38495 -z 4
n -t 0.0 -s 167 -S UP -v circle -c blue -x 218.75479 -y 411.58432 -z 4
n -t 0.0 -s 168 -S UP -v circle -c blue -x 87.22666 -y 424.78625 -z 4
n -t 0.0 -s 169 -S UP -v circle -c blue -x 459.53122 -y 58.81122 -z 4
n -t 0.0 -s 170 -S UP -v circle -c blue -x 387.13705 -y 56.38966 -z 4
n -t 0.0 -s 171 -S UP -v circle -c blue -x 496.62512 -y 422.5561 -z 4
n -t 0.0 -s 172 -S UP -v circle -c blue -x 399.5674 -y 239.17279 -z 4
n -t 0.0 -s 173 -S UP -v circle -c blue -x 36.752224 -y 186.97122 -z 4
n -t 0.0 -s 174 -S UP -v circle -c blue -x 18.814266 -y 434.61804 -z 4
n -t 0.0 -s 175 -S UP -v circle -c blue -x 158.52791 -y 221.5623 -z 4
n -t 0.0 -s 176 -S UP -v circle -c blue -x 25.756449 -y 240.33049 -z 4
n -t 0.0 -s 177 -S UP -v circle -c blue -x 85.239586 -y 355.18994 -z 4
n -t 0.0 -s 178 -S UP -v circle -c blue -x 23.970783 -y 271.22794 -z 4
n -t 0.0 -s 179 -S UP -v circle -c blue -x 148.9259 -y 87.93911 -z 4
n -t 0.0 -s 180 -S UP -v circle -c blue -x 24.14289 -y 192.77376 -z 4
n -t 0.0 -s 181 -S UP -v circle -c blue -x 210.54247 -y 0.12266636 -z 4
n -t 0.0 -s 182 -S UP -v circle -c blue -x 33.031197 -y 75.51852 -z 4
n -t 0.0 -s 183 -S UP -v circle -c blue -x 74.39515 -y 284.6335 -z 4
n -t 0.0 -s 184 -S UP -v circle -c blue -x 155.83849 -y 309.86072 -z 4
n -t 0.0 -s 185 -S UP -v circle -c blue -x 401.99683 -y 173.3905 -z 4
n -t 0.0 -s 186 -S UP -v circle -c blue -x 205.93243 -y 84.00759 -z 4
n -t 0.0 -s 187 -S UP -v circle -c blue -x 457.55368 -y 449.6596 -z 4
n -t 0.0 -s 188 -S UP -v circle -c blue -x 467.9042 -y 94.13391 -z 4
n -t 0.0 -s 189 -S UP -v circle -c blue -x 363.1075 -y 282.9422 -z 4
n -t 0.0 -s 190 -S UP -v circle -c blue -x 468.12463 -y 392.1582 -z 4
n -t 0.0 -s 191 -S UP -v circle -c blue -x 181.8266 -y 112.700554 -z 4
n -t 0.0 -s 192 -S UP -v circle -c blue -x 440.0961 -y 337.77655 -z 4
n -t 0.0 -s 193 -S UP -v circle -c blue -x 101.118385 -y 460.68256 -z 4
n -t 0.0 -s 194 -S UP -v circle -c blue -x 3.5437942 -y 472.74475 -z 4
n -t 0.0 -s 195 -S UP -v circle -c blue -x 138.3848 -y 111.68176 -z 4
n -t 0.0 -s 196 -S UP -v circle -c blue -x 209.55911 -y 78.150246 -z 4
n -t 0.0 -s 197 -S UP -v circle -c blue -x 18.797726 -y 460.34464 -z 4
n -t 0.0 -s 198 -S UP -v circle -c blue -x 397.11932 -y 471.77316 -z 4
n -t 0.0 -s 199 -S UP -v circle -c blue -x 171.06754 -y 141.6614 -z 4
n -t 0.0 -s 200 -S UP -v circle -c blue -x 296.54947 -y 100.7469 -z 4
n -t 0.0 -s 201 -S UP -v circle -c blue -x 390.62503 -y 408.03845 -z 4
n -t 0.0 -s 202 -S UP -v circle -c blue -x 345.25778 -y 243.67047 -z 4
n -t 0.0 -s 203 -S UP -v circle -c blue -x 233.94594 -y 172.77798 -z 4
n -t 0.0 -s 204 -S UP -v circle -c blue -x 22.33261 -y 51.122696 -z 4
n -t 0.0 -s 205 -S UP -v circle -c blue -x 229.1019 -y 443.2425 -z 4
n -t 0.0 -s 206 -S UP -v circle -c blue -x 487.99905 -y 80.13591 -z 4
n -t 0.0 -s 207 -S UP -v circle -c blue -x 229.40836 -y 25.26471 -z 4
n -t 0.0 -s 208 -S UP -v circle -c blue -x 437.84457 -y 358.49716 -z 4
n -t 0.0 -s 209 -S UP -v circle -c blue -x 154.8189 -y 300.20953 -z 4
n -t 0.0 -s 210 -S UP -v circle -c blue -x 161.16911 -y 1.5955567 -z 4
n -t 0.0 -s 211 -S UP -v circle -c blue -x 282.24466 -y 487.68484 -z 4
n -t 0.0 -s 212 -S UP -v circle -c blue -x 68.521675 -y 486.68842 -z 4
n -t 0.0 -s 213 -S UP -v circle -c blue -x 476.19577 -y 188.84256 -z 4
n -t 0.0 -s 214 -S UP -v circle -c blue -x 220.85793 -y 316.62808 -z 4
n -t 0.0 -s 215 -S UP -v circle -c blue -x 227.18095 -y 9.561867 -z 4
n -t 0.0 -s 216 -S UP -v circle -c blue -x 126.89486 -y 12.917757 -z 4
n -t 0.0 -s 217 -S UP -v circle -c blue -x 261.4728 -y 440.0514 -z 4
n -t 0.0 -s 218 -S UP -v circle -c blue -x 55.930256 -y 413.03113 -z 4
n -t 0.0 -s 219 -S UP -v circle -c blue -x 343.66223 -y 191.4725 -z 4
n -t 0.0 -s 220 -S UP -v circle -c blue -x 50.11037 -y 191.75708 -z 4
n -t 0.0 -s 221 -S UP -v circle -c blue -x 246.5654 -y 283.43393 -z 4
n -t 0.0 -s 222 -S UP -v circle -c blue -x 477.0301 -y 424.37283 -z 4
n -t 0.0 -s 223 -S UP -v circle -c blue -x 362.404 -y 34.44043 -z 4
n -t 0.0 -s 224 -S UP -v circle -c blue -x 284.4818 -y 490.10367 -z 4
n -t 0.0 -s 225 -S UP -v circle -c blue -x 467.80536 -y 324.83322 -z 4
n -t 0.0 -s 226 -S UP -v circle -c blue -x 352.66946 -y 17.923027 -z 4
n -t 0.0 -s 227 -S UP -v circle -c blue -x 493.3317 -y 196.11311 -z 4
n -t 0.0 -s 228 -S UP -v circle -c blue -x 163.49265 -y 79.55703 -z 4
n -t 0.0 -s 229 -S UP -v circle -c blue -x 38.37651 -y 287.9018 -z 4
n -t 0.0 -s 230 -S UP -v circle -c blue -x 154.49545 -y 73.786705 -z 4
n -t 0.0 -s 231 -S UP -v circle -c blue -x 183.9987 -y 333.7232 -z 4
n -t 0.0 -s 232 -S UP -v circle -c blue -x 9.361803 -y 444.93442 -z 4
n -t 0.0 -s 233 -S UP -v circle -c blue -x 1.4128089 -y 377.26474 -z 4
n -t 0.0 -s 234 -S UP -v circle -c blue -x 474.70816 -y 470.86038 -z 4
n -t 0.0 -s 235 -S UP -v circle -c blue -x 11.4220085 -y 493.2317 -z 4
n -t 0.0 -s 236 -S UP -v circle -c blue -x 231.34985 -y 111.90113 -z 4
n -t 0.0 -s 237 -S UP -v circle -c blue -x 191.26233 -y 211.2014 -z 4
n -t 0.0 -s 238 -S UP -v circle -c blue -x 88.85762 -y 62.909843 -z 4
n -t 0.0 -s 239 -S UP -v circle -c blue -x 38.497032 -y 430.31738 -z 4
n -t 0.0 -s 240 -S UP -v circle -c blue -x 196.42577 -y 12.803465 -z 4
n -t 0.0 -s 241 -S UP -v circle -c blue -x 17.330528 -y 158.97592 -z 4
n -t 0.0 -s 242 -S UP -v circle -c blue -x 256.8739 -y 217.61754 -z 4
n -t 0.0 -s 243 -S UP -v circle -c blue -x 128.7506 -y 222.02464 -z 4
n -t 0.0 -s 244 -S UP -v circle -c blue -x 9.729565 -y 197.78227 -z 4
n -t 0.0 -s 245 -S UP -v circle -c blue -x 52.20139 -y 102.026764 -z 4
n -t 0.0 -s 246 -S UP -v circle -c blue -x 184.19159 -y 2.8740764 -z 4
n -t 0.0 -s 247 -S UP -v circle -c blue -x 110.16414 -y 47.898056 -z 4
n -t 0.0 -s 248 -S UP -v circle -c blue -x 63.45895 -y 458.1067 -z 4
n -t 0.0 -s 249 -S UP -v circle -c blue -x 257.39526 -y 119.18306 -z 4
n -t 0.0 -s 250 -S UP -v circle -c blue -x 403.20645 -y 237.88843 -z 4
n -t 0.0 -s 251 -S UP -v circle -c blue -x 310.14627 -y 86.32949 -z 4
n -t 0.0 -s 252 -S UP -v circle -c blue -x 293.3727 -y 460.40717 -z 4
n -t 0.0 -s 253 -S UP -v circle -c blue -x 116.157326 -y 373.90817 -z 4
n -t 0.0 -s 254 -S UP -v circle -c blue -x 283.05716 -y 181.8685 -z 4
n -t 0.0 -s 255 -S UP -v circle -c blue -x 349.45718 -y 85.61069 -z 4
n -t 0.0 -s 256 -S UP -v circle -c blue -x 22.047161 -y 194.09933 -z 4
n -t 0.0 -s 257 -S UP -v circle -c blue -x 363.08044 -y 56.276382 -z 4
n -t 0.0 -s 258 -S UP -v circle -c blue -x 432.8534 -y 110.072914 -z 4
n -t 0.0 -s 259 -S UP -v circle -c blue -x 182.98427 -y 329.83084 -z 4
n -t 0.0 -s 260 -S UP -v circle -c blue -x 67.33588 -y 409.7788 -z 4
n -t 0.0 -s 261 -S UP -v circle -c blue -x 405.15237 -y 103.97306 -z 4
n -t 0.0 -s 262 -S UP -v circle -c blue -x 429.97592 -y 425.96176 -z 4
n -t 0.0 -s 263 -S UP -v circle -c blue -x 209.74191 -y 427.2765 -z 4
n -t 0.0 -s 264 -S UP -v circle -c blue -x 453.17685 -y 273.7308 -z 4
n -t 0.0 -s 265 -S UP -v circle -c blue -x 417.97592 -y 95.06279 -z 4
n -t 0.0 -s 266 -S UP -v circle -c blue -x 80.95249 -y 278.97476 -z 4
n -t 0.0 -s 267 -S UP -v circle -c blue -x 343.3151 -y 103.3867 -z 4
n -t 0.0 -s 268 -S UP -v circle -c blue -x 77.955574 -y 182.9358 -z 4
n -t 0.0 -s 269 -S UP -v circle -c blue -x 474.44696 -y 170.60468 -z 4
n -t 0.0 -s 270 -S UP -v circle -c blue -x 307.66824 -y 400.14023 -z 4
n -t 0.0 -s 271 -S UP -v circle -c blue -x 237.18959 -y 481.58566 -z 4
n -t 0.0 -s 272 -S UP -v circle -c blue -x 73.075356 -y 76.06644 -z 4
n -t 0.0 -s 273 -S UP -v circle -c blue -x 421.085 -y 107.39896 -z 4
n -t 0.0 -s 274 -S UP -v circle -c blue -x 246.2973 -y 32.270103 -z 4
n -t 0.0 -s 275 -S UP -v circle -c blue -x 397.00955 -y 183.45934 -z 4
n -t 0.0 -s 276 -S UP -v circle -c blue -x 321.20157 -y 138.95905 -z 4
n -t 0.0 -s 277 -S UP -v circle -c blue -x 59.496315 -y 220.23273 -z 4
n -t 0.0 -s 278 -S UP -v circle -c blue -x 250.34679 -y 417.9216 -z 4
n -t 0.0 -s 279 -S UP -v circle -c blue -x 183.77519 -y 474.7623 -z 4
n -t 0.0 -s 280 -S UP -v circle -c blue -x 199.83888 -y 37.90599 -z 4
n -t 0.0 -s 281 -S UP -v circle -c blue -x 17.109215 -y 128.94824 -z 4
n -t 0.0 -s 282 -S UP -v circle -c blue -x 202.58307 -y 316.60617 -z 4
n -t 0.0 -s 283 -S UP -v circle -c blue -x 218.34117 -y 125.635506 -z 4
n -t 0.0 -s 284 -S UP -v circle -c blue -x 71.46591 -y 220.85431 -z 4
n -t 0.0 -s 285 -S UP -v circle -c blue -x 2.3570657 -y 78.49043 -z 4
n -t 0.0 -s 286 -S UP -v circle -c blue -x 363.36407 -y 452.90372 -z 4
n -t 0.0 -s 287 -S UP -v circle -c blue -x 438.29974 -y 142.18565 -z 4
n -t 0.0 -s 288 -S UP -v circle -c blue -x 356.39438 -y 405.2079 -z 4
n -t 0.0 -s 289 -S UP -v circle -c blue -x 434.89417 -y 449.79648 -z 4
n -t 0.0 -s 290 -S UP -v circle -c blue -x 415.0302 -y 149.1894 -z 4
n -t 0.0 -s 291 -S UP -v circle -c blue -x 33.42855 -y 62.220036 -z 4
n -t 0.0 -s 292 -S UP -v circle -c blue -x 198.83466 -y 121.42053 -z 4
n -t 0.0 -s 293 -S UP -v circle -c blue -x 221.21492 -y 345.97263 -z 4
n -t 0.0 -s 294 -S UP -v circle -c blue -x 403.5108 -y 170.60696 -z 4
n -t 0.0 -s 295 -S UP -v circle -c blue -x 195.35803 -y 90.452286 -z 4
n -t 0.0 -s 296 -S UP -v circle -c blue -x 270.34277 -y 103.9288 -z 4
n -t 0.0 -s 297 -S UP -v circle -c blue -x 210.20723 -y 181.66077 -z 4
n -t 0.0 -s 298 -S UP -v circle -c blue -x 429.18137 -y 5.7226715 -z 4
n -t 0.0 -s 299 -S UP -v circle -c blue -x 60.958862 -y 477.88715 -z 4
n -t 0.0 -s 300 -S UP -v circle -c blue -x 147.88902 -y 415.2131 -z 4
n -t 0.0 -s 1 -S UP -v circle -c red -x 400.75644 -y 374.6387 -z 4
n -t 0.0 -s 300 -S UP -v circle -c blue -x 147.88902 -y 415.2131 -z 4
n -t 0.0 -s 3 -S UP -v circle -c red -x 183.57196 -y 334.90015 -z 4
n -t 0.0 -s 7 -S UP -v circle -c red -x 445.05518 -y 158.61777 -z 4
n -t 0.0 -s 299 -S UP -v circle -c blue -x 60.958862 -y 477.88715 -z 4
n -t 0.0 -s 15 -S UP -v circle -c blue -x 276.00073 -y 232.1611 -z 4
n -t 0.0 -s 31 -S UP -v circle -c blue -x 275.29318 -y 213.64119 -z 4
n -t 0.0 -s 63 -S UP -v circle -c blue -x 224.36855 -y 190.07986 -z 4
n -t 0.0 -s 127 -S UP -v circle -c blue -x 481.54526 -y 355.94012 -z 4
n -t 0.0 -s 255 -S UP -v circle -c blue -x 349.45718 -y 85.61069 -z 4
n -t 0.0 -s 256 -S UP -v circle -c blue -x 22.047161 -y 194.09933 -z 4
n -t 0.0 -s 128 -S UP -v circle -c blue -x 302.08005 -y 203.97595 -z 4
n -t 0.0 -s 257 -S UP -v circle -c blue -x 363.08044 -y 56.276382 -z 4
n -t 0.0 -s 258 -S UP -v circle -c blue -x 432.8534 -y 110.072914 -z 4
n -t 0.0 -s 64 -S UP -v circle -c blue -x 189.45515 -y 486.94937 -z 4
n -t 0.0 -s 129 -S UP -v circle -c blue -x 50.61206 -y 14.399081 -z 4
n -t 0.0 -s 259 -S UP -v circle -c blue -x 182.98427 -y 329.83084 -z 4
n -t 0.0 -s 260 -S UP -v circle -c blue -x 67.33588 -y 409.7788 -z 4
n -t 0.0 -s 130 -S UP -v circle -c blue -x 74.41965 -y 349.78537 -z 4
n -t 0.0 -s 261 -S UP -v circle -c blue -x 405.15237 -y 103.97306 -z 4
n -t 0.0 -s 262 -S UP -v circle -c blue -x 429.97592 -y 425.96176 -z 4
n -t 0.0 -s 32 -S UP -v circle -c blue -x 366.85736 -y 474.2874 -z 4
n -t 0.0 -s 65 -S UP -v circle -c blue -x 9.165615 -y 385.12888 -z 4
n -t 0.0 -s 131 -S UP -v circle -c blue -x 236.20605 -y 318.05917 -z 4
n -t 0.0 -s 263 -S UP -v circle -c blue -x 209.74191 -y 427.2765 -z 4
n -t 0.0 -s 264 -S UP -v circle -c blue -x 453.17685 -y 273.7308 -z 4
n -t 0.0 -s 132 -S UP -v circle -c blue -x 304.3709 -y 5.8209896 -z 4
n -t 0.0 -s 265 -S UP -v circle -c blue -x 417.97592 -y 95.06279 -z 4
n -t 0.0 -s 266 -S UP -v circle -c blue -x 80.95249 -y 278.97476 -z 4
n -t 0.0 -s 66 -S UP -v circle -c blue -x 237.66699 -y 125.013115 -z 4
n -t 0.0 -s 133 -S UP -v circle -c blue -x 128.62212 -y 37.558765 -z 4
n -t 0.0 -s 267 -S UP -v circle -c blue -x 343.3151 -y 103.3867 -z 4
n -t 0.0 -s 268 -S UP -v circle -c blue -x 77.955574 -y 182.9358 -z 4
n -t 0.0 -s 134 -S UP -v circle -c blue -x 63.66864 -y 150.29964 -z 4
n -t 0.0 -s 269 -S UP -v circle -c blue -x 474.44696 -y 170.60468 -z 4
n -t 0.0 -s 270 -S UP -v circle -c blue -x 307.66824 -y 400.14023 -z 4
n -t 0.0 -s 16 -S UP -v circle -c blue -x 297.83057 -y 143.67667 -z 4
n -t 0.0 -s 33 -S UP -v circle -c blue -x 214.67221 -y 3.353566 -z 4
n -t 0.0 -s 67 -S UP -v circle -c blue -x 353.2405 -y 108.0592 -z 4
n -t 0.0 -s 135 -S UP -v circle -c blue -x 268.6601 -y 165.51968 -z 4
n -t 0.0 -s 271 -S UP -v circle -c blue -x 237.18959 -y 481.58566 -z 4
n -t 0.0 -s 272 -S UP -v circle -c blue -x 73.075356 -y 76.06644 -z 4
n -t 0.0 -s 136 -S UP -v circle -c blue -x 276.2347 -y 170.71033 -z 4
n -t 0.0 -s 273 -S UP -v circle -c blue -x 421.085 -y 107.39896 -z 4
n -t 0.0 -s 274 -S UP -v circle -c blue -x 246.2973 -y 32.270103 -z 4
n -t 0.0 -s 68 -S UP -v circle -c blue -x 309.56082 -y 408.3422 -z 4
n -t 0.0 -s 137 -S UP -v circle -c blue -x 73.22466 -y 105.263176 -z 4
n -t 0.0 -s 275 -S UP -v circle -c blue -x 397.00955 -y 183.45934 -z 4
n -t 0.0 -s 276 -S UP -v circle -c blue -x 321.20157 -y 138.95905 -z 4
n -t 0.0 -s 138 -S UP -v circle -c blue -x 423.0651 -y 276.51294 -z 4
n -t 0.0 -s 277 -S UP -v circle -c blue -x 59.496315 -y 220.23273 -z 4
n -t 0.0 -s 278 -S UP -v circle -c blue -x 250.34679 -y 417.9216 -z 4
n -t 0.0 -s 34 -S UP -v circle -c blue -x 14.447927 -y 430.86273 -z 4
n -t 0.0 -s 69 -S UP -v circle -c blue -x 112.74075 -y 272.19165 -z 4
n -t 0.0 -s 139 -S UP -v circle -c blue -x 423.07043 -y 495.5563 -z 4
n -t 0.0 -s 279 -S UP -v circle -c blue -x 183.77519 -y 474.7623 -z 4
n -t 0.0 -s 280 -S UP -v circle -c blue -x 199.83888 -y 37.90599 -z 4
n -t 0.0 -s 140 -S UP -v circle -c blue -x 100.515305 -y 283.18643 -z 4
n -t 0.0 -s 281 -S UP -v circle -c blue -x 17.109215 -y 128.94824 -z 4
n -t 0.0 -s 282 -S UP -v circle -c blue -x 202.58307 -y 316.60617 -z 4
n -t 0.0 -s 70 -S UP -v circle -c blue -x 454.326 -y 37.46587 -z 4
n -t 0.0 -s 141 -S UP -v circle -c blue -x 264.0745 -y 452.22324 -z 4
n -t 0.0 -s 283 -S UP -v circle -c blue -x 218.34117 -y 125.635506 -z 4
n -t 0.0 -s 284 -S UP -v circle -c blue -x 71.46591 -y 220.85431 -z 4
n -t 0.0 -s 142 -S UP -v circle -c blue -x 228.90895 -y 395.29065 -z 4
n -t 0.0 -s 285 -S UP -v circle -c blue -x 2.3570657 -y 78.49043 -z 4
n -t 0.0 -s 286 -S UP -v circle -c blue -x 363.36407 -y 452.90372 -z 4
n -t 0.0 -s 8 -S UP -v circle -c red -x 315.9034 -y 97.019226 -z 4
n -t 0.0 -s 17 -S UP -v circle -c blue -x 294.61328 -y 291.85742 -z 4
n -t 0.0 -s 35 -S UP -v circle -c blue -x 18.550278 -y 87.71598 -z 4
n -t 0.0 -s 71 -S UP -v circle -c blue -x 379.04324 -y 293.6725 -z 4
n -t 0.0 -s 143 -S UP -v circle -c blue -x 347.42804 -y 178.43303 -z 4
n -t 0.0 -s 287 -S UP -v circle -c blue -x 438.29974 -y 142.18565 -z 4
n -t 0.0 -s 288 -S UP -v circle -c blue -x 356.39438 -y 405.2079 -z 4
n -t 0.0 -s 144 -S UP -v circle -c blue -x 106.716934 -y 407.6501 -z 4
n -t 0.0 -s 289 -S UP -v circle -c blue -x 434.89417 -y 449.79648 -z 4
n -t 0.0 -s 290 -S UP -v circle -c blue -x 415.0302 -y 149.1894 -z 4
n -t 0.0 -s 72 -S UP -v circle -c blue -x 160.49841 -y 385.81583 -z 4
n -t 0.0 -s 145 -S UP -v circle -c blue -x 231.02223 -y 437.39218 -z 4
n -t 0.0 -s 291 -S UP -v circle -c blue -x 33.42855 -y 62.220036 -z 4
n -t 0.0 -s 292 -S UP -v circle -c blue -x 198.83466 -y 121.42053 -z 4
n -t 0.0 -s 146 -S UP -v circle -c blue -x 31.29211 -y 376.1258 -z 4
n -t 0.0 -s 293 -S UP -v circle -c blue -x 221.21492 -y 345.97263 -z 4
n -t 0.0 -s 294 -S UP -v circle -c blue -x 403.5108 -y 170.60696 -z 4
n -t 0.0 -s 36 -S UP -v circle -c blue -x 409.56735 -y 255.25877 -z 4
n -t 0.0 -s 73 -S UP -v circle -c blue -x 10.39967 -y 359.77664 -z 4
n -t 0.0 -s 147 -S UP -v circle -c blue -x 456.8074 -y 474.2064 -z 4
n -t 0.0 -s 295 -S UP -v circle -c blue -x 195.35803 -y 90.452286 -z 4
n -t 0.0 -s 296 -S UP -v circle -c blue -x 270.34277 -y 103.9288 -z 4
n -t 0.0 -s 148 -S UP -v circle -c blue -x 351.01312 -y 21.4777 -z 4
n -t 0.0 -s 297 -S UP -v circle -c blue -x 210.20723 -y 181.66077 -z 4
n -t 0.0 -s 298 -S UP -v circle -c blue -x 429.18137 -y 5.7226715 -z 4
n -t 0.0 -s 74 -S UP -v circle -c blue -x 294.6029 -y 497.40085 -z 4
n -t 0.0 -s 149 -S UP -v circle -c blue -x 471.97565 -y 446.4399 -z 4
n -t 0.0 -s 150 -S UP -v circle -c blue -x 121.104065 -y 121.24848 -z 4
n -t 0.0 -s 18 -S UP -v circle -c blue -x 152.52016 -y 342.8712 -z 4
n -t 0.0 -s 37 -S UP -v circle -c blue -x 46.71851 -y 56.328236 -z 4
n -t 0.0 -s 75 -S UP -v circle -c blue -x 250.87138 -y 164.19395 -z 4
n -t 0.0 -s 151 -S UP -v circle -c blue -x 57.581543 -y 377.44727 -z 4
n -t 0.0 -s 152 -S UP -v circle -c blue -x 231.45148 -y 201.05734 -z 4
n -t 0.0 -s 76 -S UP -v circle -c blue -x 268.74823 -y 459.48154 -z 4
n -t 0.0 -s 153 -S UP -v circle -c blue -x 190.99033 -y 83.36696 -z 4
n -t 0.0 -s 154 -S UP -v circle -c blue -x 489.2208 -y 454.76804 -z 4
n -t 0.0 -s 38 -S UP -v circle -c blue -x 45.037598 -y 154.1144 -z 4
n -t 0.0 -s 77 -S UP -v circle -c blue -x 272.98212 -y 291.4374 -z 4
n -t 0.0 -s 155 -S UP -v circle -c blue -x 189.83263 -y 467.6781 -z 4
n -t 0.0 -s 156 -S UP -v circle -c blue -x 131.45474 -y 335.20343 -z 4
n -t 0.0 -s 78 -S UP -v circle -c blue -x 213.77242 -y 343.76645 -z 4
n -t 0.0 -s 157 -S UP -v circle -c blue -x 448.64014 -y 198.78825 -z 4
n -t 0.0 -s 158 -S UP -v circle -c blue -x 127.27547 -y 456.88022 -z 4
n -t 0.0 -s 4 -S UP -v circle -c red -x 24.379461 -y 454.90887 -z 4
n -t 0.0 -s 9 -S UP -v circle -c blue -x 121.195076 -y 15.791714 -z 4
n -t 0.0 -s 19 -S UP -v circle -c blue -x 155.69531 -y 362.94366 -z 4
n -t 0.0 -s 39 -S UP -v circle -c blue -x 132.01776 -y 365.80927 -z 4
n -t 0.0 -s 79 -S UP -v circle -c blue -x 286.75342 -y 116.18742 -z 4
n -t 0.0 -s 159 -S UP -v circle -c blue -x 485.9163 -y 32.049774 -z 4
n -t 0.0 -s 160 -S UP -v circle -c blue -x 99.659 -y 219.0229 -z 4
n -t 0.0 -s 80 -S UP -v circle -c blue -x 107.27757 -y 112.22741 -z 4
n -t 0.0 -s 161 -S UP -v circle -c blue -x 12.127399 -y 252.1261 -z 4
n -t 0.0 -s 162 -S UP -v circle -c blue -x 251.53848 -y 481.2223 -z 4
n -t 0.0 -s 40 -S UP -v circle -c blue -x 374.88498 -y 289.17178 -z 4
n -t 0.0 -s 81 -S UP -v circle -c blue -x 433.7723 -y 247.37221 -z 4
n -t 0.0 -s 163 -S UP -v circle -c blue -x 318.23575 -y 262.42892 -z 4
n -t 0.0 -s 164 -S UP -v circle -c blue -x 248.44714 -y 131.79457 -z 4
n -t 0.0 -s 82 -S UP -v circle -c blue -x 277.91574 -y 161.49777 -z 4