# Trace file generated by Jist/Swans Version 1.0.6. at Fri Jul 26 18:33:36 BRT 2013
V -t * -v 1.0a5 -a 0
W -t * -x 410 -y 410
A -t * -n 1 -p 0 -o 0xffffffff -c 31 -a 1
A -t * -h 1 -m 2147483647 -s 0
n -t 0.0 -s 1 -S UP -v circle -c red -x 365.83344 -y 276.5003 -z 4
n -t 0.0 -s 2 -S UP -v circle -c red -x 96.90019 -y 489.16165 -z 4
n -t 0.0 -s 3 -S UP -v circle -c red -x 423.95218 -y 450.71927 -z 4
n -t 0.0 -s 4 -S UP -v circle -c red -x 452.48618 -y 238.87918 -z 4
n -t 0.0 -s 5 -S UP -v circle -c red -x 94.183 -y 480.52643 -z 4
n -t 0.0 -s 6 -S UP -v circle -c red -x 418.52905 -y 76.004684 -z 4
n -t 0.0 -s 7 -S UP -v circle -c red -x 465.00452 -y 240.57358 -z 4
n -t 0.0 -s 8 -S UP -v circle -c red -x 75.30228 -y 87.559494 -z 4
n -t 0.0 -s 9 -S UP -v circle -c blue -x 293.86237 -y 235.02847 -z 4
n -t 0.0 -s 10 -S UP -v circle -c blue -x 414.94427 -y 497.67984 -z 4
n -t 0.0 -s 11 -S UP -v circle -c blue -x 39.412678 -y 30.421675 -z 4
n -t 0.0 -s 12 -S UP -v circle -c blue -x 454.33505 -y 391.0661 -z 4
n -t 0.0 -s 13 -S UP -v circle -c blue -x 43.121456 -y 173.70811 -z 4
n -t 0.0 -s 14 -S UP -v circle -c blue -x 269.1691 -y 120.08625 -z 4
n -t 0.0 -s 15 -S UP -v circle -c blue -x 401.91147 -y 44.920265 -z 4
n -t 0.0 -s 16 -S UP -v circle -c blue -x 371.01184 -y 159.80309 -z 4
n -t 0.0 -s 17 -S UP -v circle -c blue -x 83.97767 -y 425.1371 -z 4
n -t 0.0 -s 18 -S UP -v circle -c blue -x 30.016392 -y 31.551779 -z 4
n -t 0.0 -s 19 -S UP -v circle -c blue -x 296.33966 -y 335.5341 -z 4
n -t 0.0 -s 20 -S UP -v circle -c blue -x 392.2609 -y 103.68291 -z 4
n -t 0.0 -s 21 -S UP -v circle -c blue -x 298.84976 -y 94.380226 -z 4
n -t 0.0 -s 22 -S UP -v circle -c blue -x 66.51497 -y 391.16983 -z 4
n -t 0.0 -s 23 -S UP -v circle -c blue -x 176.11247 -y 491.80563 -z 4
n -t 0.0 -s 24 -S UP -v circle -c blue -x 454.4944 -y 293.3449 -z 4
n -t 0.0 -s 25 -S UP -v circle -c blue -x 169.15807 -y 341.222 -z 4
n -t 0.0 -s 26 -S UP -v circle -c blue -x 469.86 -y 121.417046 -z 4
n -t 0.0 -s 27 -S UP -v circle -c blue -x 43.00514 -y 299.105 -z 4
n -t 0.0 -s 28 -S UP -v circle -c blue -x 362.5748 -y 200.89493 -z 4
n -t 0.0 -s 29 -S UP -v circle -c blue -x 126.886696 -y 267.5671 -z 4
n -t 0.0 -s 30 -S UP -v circle -c blue -x 119.668365 -y 175.8101 -z 4
n -t 0.0 -s 31 -S UP -v circle -c blue -x 230.52687 -y 196.29938 -z 4
n -t 0.0 -s 32 -S UP -v circle -c blue -x 13.565481 -y 364.84015 -z 4
n -t 0.0 -s 33 -S UP -v circle -c blue -x 474.2635 -y 370.04254 -z 4
n -t 0.0 -s 34 -S UP -v circle -c blue -x 282.19983 -y 308.16174 -z 4
n -t 0.0 -s 35 -S UP -v circle -c blue -x 402.01096 -y 16.176105 -z 4
n -t 0.0 -s 36 -S UP -v circle -c blue -x 48.12977 -y 18.132866 -z 4
n -t 0.0 -s 37 -S UP -v circle -c blue -x 295.24823 -y 154.15996 -z 4
n -t 0.0 -s 38 -S UP -v circle -c blue -x 368.4585 -y 387.67038 -z 4
n -t 0.0 -s 39 -S UP -v circle -c blue -x 211.7706 -y 167.72267 -z 4
n -t 0.0 -s 40 -S UP -v circle -c blue -x 384.88614 -y 284.3487 -z 4
n -t 0.0 -s 41 -S UP -v circle -c blue -x 15.430421 -y 143.60518 -z 4
n -t 0.0 -s 42 -S UP -v circle -c blue -x 349.7174 -y 343.63022 -z 4
n -t 0.0 -s 43 -S UP -v circle -c blue -x 490.26663 -y 142.51115 -z 4
n -t 0.0 -s 44 -S UP -v circle -c blue -x 204.84317 -y 485.01437 -z 4
n -t 0.0 -s 45 -S UP -v circle -c blue -x 484.2221 -y 452.30237 -z 4
n -t 0.0 -s 46 -S UP -v circle -c blue -x 307.01425 -y 284.97305 -z 4
n -t 0.0 -s 47 -S UP -v circle -c blue -x 461.20663 -y 497.4553 -z 4
n -t 0.0 -s 48 -S UP -v circle -c blue -x 424.2282 -y 210.96245 -z 4
n -t 0.0 -s 49 -S UP -v circle -c blue -x 154.8931 -y 317.85916 -z 4
n -t 0.0 -s 50 -S UP -v circle -c blue -x 179.54388 -y 223.15445 -z 4
n -t 0.0 -s 1 -S UP -v circle -c red -x 365.83344 -y 276.5003 -z 4
n -t 0.0 -s 50 -S UP -v circle -c blue -x 179.54388 -y 223.15445 -z 4
n -t 0.0 -s 3 -S UP -v circle -c red -x 423.95218 -y 450.71927 -z 4
n -t 0.0 -s 7 -S UP -v circle -c red -x 465.00452 -y 240.57358 -z 4
n -t 0.0 -s 49 -S UP -v circle -c blue -x 154.8931 -y 317.85916 -z 4
n -t 0.0 -s 15 -S UP -v circle -c blue -x 401.91147 -y 44.920265 -z 4
n -t 0.0 -s 31 -S UP -v circle -c blue -x 230.52687 -y 196.29938 -z 4
n -t 0.0 -s 32 -S UP -v circle -c blue -x 13.565481 -y 364.84015 -z 4
n -t 0.0 -s 16 -S UP -v circle -c blue -x 371.01184 -y 159.80309 -z 4
n -t 0.0 -s 33 -S UP -v circle -c blue -x 474.2635 -y 370.04254 -z 4
n -t 0.0 -s 34 -S UP -v circle -c blue -x 282.19983 -y 308.16174 -z 4
n -t 0.0 -s 8 -S UP -v circle -c red -x 75.30228 -y 87.559494 -z 4
n -t 0.0 -s 17 -S UP -v circle -c blue -x 83.97767 -y 425.1371 -z 4
n -t 0.0 -s 35 -S UP -v circle -c blue -x 402.01096 -y 16.176105 -z 4
n -t 0.0 -s 36 -S UP -v circle -c blue -x 48.12977 -y 18.132866 -z 4
n -t 0.0 -s 18 -S UP -v circle -c blue -x 30.016392 -y 31.551779 -z 4
n -t 0.0 -s 37 -S UP -v circle -c blue -x 295.24823 -y 154.15996 -z 4
n -t 0.0 -s 38 -S UP -v circle -c blue -x 368.4585 -y 387.67038 -z 4
n -t 0.0 -s 4 -S UP -v circle -c red -x 452.48618 -y 238.87918 -z 4
n -t 0.0 -s 9 -S UP -v circle -c blue -x 293.86237 -y 235.02847 -z 4
n -t 0.0 -s 48 -S UP -v circle -c blue -x 424.2282 -y 210.96245 -z 4
n -t 0.0 -s 19 -S UP -v circle -c blue -x 296.33966 -y 335.5341 -z 4
n -t 0.0 -s 39 -S UP -v circle -c blue -x 211.7706 -y 167.72267 -z 4
n -t 0.0 -s 40 -S UP -v circle -c blue -x 384.88614 -y 284.3487 -z 4
n -t 0.0 -s 20 -S UP -v circle -c blue -x 392.2609 -y 103.68291 -z 4
n -t 0.0 -s 41 -S UP -v circle -c blue -x 15.430421 -y 143.60518 -z 4
n -t 0.0 -s 42 -S UP -v circle -c blue -x 349.7174 -y 343.63022 -z 4
n -t 0.0 -s 10 -S UP -v circle -c blue -x 414.94427 -y 497.67984 -z 4
n -t 0.0 -s 21 -S UP -v circle -c blue -x 298.84976 -y 94.380226 -z 4
n -t 0.0 -s 43 -S UP -v circle -c blue -x 490.26663 -y 142.51115 -z 4
n -t 0.0 -s 44 -S UP -v circle -c blue -x 204.84317 -y 485.01437 -z 4
n -t 0.0 -s 22 -S UP -v circle -c blue -x 66.51497 -y 391.16983 -z 4
n -t 0.0 -s 45 -S UP -v circle -c blue -x 484.2221 -y 452.30237 -z 4
n -t 0.0 -s 46 -S UP -v circle -c blue -x 307.01425 -y 284.97305 -z 4
n -t 0.0 -s 2 -S UP -v circle -c red -x 96.90019 -y 489.16165 -z 4
n -t 0.0 -s 5 -S UP -v circle -c red -x 94.183 -y 480.52643 -z 4
n -t 0.0 -s 11 -S UP -v circle -c blue -x 39.412678 -y 30.421675 -z 4
n -t 0.0 -s 23 -S UP -v circle -c blue -x 176.11247 -y 491.80563 -z 4
n -t 0.0 -s 47 -S UP -v circle -c blue -x 461.20663 -y 497.4553 -z 4
n -t 0.0 -s 24 -S UP -v circle -c blue -x 454.4944 -y 293.3449 -z 4
n -t 0.0 -s 12 -S UP -v circle -c blue -x 454.33505 -y 391.0661 -z 4
n -t 0.0 -s 25 -S UP -v circle -c blue -x 169.15807 -y 341.222 -z 4
n -t 0.0 -s 26 -S UP -v circle -c blue -x 469.86 -y 121.417046 -z 4
n -t 0.0 -s 6 -S UP -v circle -c red -x 418.52905 -y 76.004684 -z 4
n -t 0.0 -s 13 -S UP -v circle -c blue -x 43.121456 -y 173.70811 -z 4
n -t 0.0 -s 27 -S UP -v circle -c blue -x 43.00514 -y 299.105 -z 4
n -t 0.0 -s 28 -S UP -v circle -c blue -x 362.5748 -y 200.89493 -z 4
n -t 0.0 -s 14 -S UP -v circle -c blue -x 269.1691 -y 120.08625 -z 4
n -t 0.0 -s 29 -S UP -v circle -c blue -x 126.886696 -y 267.5671 -z 4
n -t 0.0 -s 30 -S UP -v circle -c blue -x 119.668365 -y 175.8101 -z 4
n -t 0.053418335 -s 21 -S UP -v circle -c blue -x 297.87793 -y 94.29048 -z 4
n -t 0.0700401 -s 50 -S UP -v circle -c blue -x 180.72577 -y 223.43784 -z 4
n -t 0.3531622 -s 31 -S UP -v circle -c blue -x 229.22205 -y 190.39262 -z 4
n -t 0.6040396 -s 38 -S UP -v circle -c blue -x 369.1327 -y 375.77374 -z 4
n -t 0.93849367 -s 45 -S UP -v circle -c blue -x 485.46985 -y 467.27887 -z 4
n -t 0.9949397 -s 20 -S UP -v circle -c blue -x 377.73615 -y 111.3343 -z 4
n -t 1.3006113 -s 13 -S UP -v circle -c blue -x 53.757854 -y 153.4622 -z 4
n -t 1.3819772 -s 28 -S UP -v circle -c blue -x 357.16574 -y 179.8937 -z 4
n -t 1.8411936 -s 28 -S UP -v circle -c blue -x 353.0105 -y 174.97018 -z 4
n -t 1.9662224 -s 44 -S UP -v circle -c blue -x 185.93396 -y 497.08292 -z 4
n -t 2.0061886 -s 30 -S UP -v circle -c blue -x 95.90976 -y 143.85309 -z 4
n -t 2.6718097 -s 33 -S UP -v circle -c blue -x 435.90268 -y 402.45868 -z 4
n -t 3.2403061 -s 39 -S UP -v circle -c blue -x 164.98572 -y 178.39249 -z 4
n -t 3.3111236 -s 19 -S UP -v circle -c blue -x 289.56232 -y 381.63586 -z 4
n -t 3.518496 -s 22 -S UP -v circle -c blue -x 107.129555 -y 398.72174 -z 4
n -t 3.656312 -s 40 -S UP -v circle -c blue -x 403.8906 -y 292.70444 -z 4
n -t 3.6789894 -s 33 -S UP -v circle -c blue -x 441.82492 -y 418.88007 -z 4
n -t 3.7706192 -s 37 -S UP -v circle -c blue -x 334.3689 -y 116.67466 -z 4
n -t 3.883175 -s 17 -S UP -v circle -c blue -x 72.39587 -y 401.1067 -z 4
n -t 3.9329233 -s 26 -S UP -v circle -c blue -x 438.72534 -y 141.34274 -z 4
n -t 4.287272 -s 24 -S UP -v circle -c blue -x 505.80197 -y 274.78674 -z 4
n -t 4.6051 -s 50 -S UP -v circle -c blue -x 183.51921 -y 177.59055 -z 4
n -t 4.745624 -s 13 -S UP -v circle -c blue -x 60.999706 -y 218.72038 -z 4
n -t 5.936664 -s 21 -S UP -v circle -c blue -x 190.79504 -y 81.55917 -z 4
n -t 6.6683292 -s 46 -S UP -v circle -c blue -x 338.48068 -y 271.19476 -z 4
n -t 6.807364 -s 27 -S UP -v circle -c blue -x 47.38937 -y 252.05602 -z 4
n -t 7.2633452 -s 48 -S UP -v circle -c blue -x 383.51617 -y 320.85043 -z 4
n -t 7.3132963 -s 19 -S UP -v circle -c blue -x 318.51846 -y 340.75482 -z 4
n -t 7.407859 -s 37 -S UP -v circle -c blue -x 359.2436 -y 58.431705 -z 4
n -t 7.4271197 -s 14 -S UP -v circle -c blue -x 234.57332 -y 83.59444 -z 4
n -t 7.84235 -s 46 -S UP -v circle -c blue -x 333.66733 -y 260.0791 -z 4
n -t 8.391562 -s 17 -S UP -v circle -c blue -x 76.78814 -y 315.6734 -z 4
n -t 8.588134 -s 21 -S UP -v circle -c blue -x 169.19986 -y 104.07347 -z 4
n -t 8.603159 -s 27 -S UP -v circle -c blue -x 51.317387 -y 258.79776 -z 4
n -t 8.788638 -s 27 -S UP -v circle -c blue -x 50.1704 -y 260.52994 -z 4
n -t 9.199764 -s 31 -S UP -v circle -c blue -x 230.54533 -y 298.8136 -z 4
n -t 9.350016 -s 27 -S UP -v circle -c blue -x 48.616814 -y 256.1938 -z 4
n -t 9.436838 -s 19 -S UP -v circle -c blue -x 327.10742 -y 314.02963 -z 4
n -t 9.584521 -s 29 -S UP -v circle -c blue -x 192.18178 -y 276.84683 -z 4
n -t 9.651399 -s 44 -S UP -v circle -c blue -x 182.11826 -y 461.0137 -z 4
n -t 10.457675 -s 12 -S UP -v circle -c blue -x 483.43494 -y 390.51572 -z 4
n -t 11.114781 -s 41 -S UP -v circle -c blue -x 24.556438 -y 120.27947 -z 4
n -t 11.6057005 -s 22 -S UP -v circle -c blue -x 180.72446 -y 472.6159 -z 4
n -t 11.611223 -s 41 -S UP -v circle -c blue -x 25.912048 -y 125.3366 -z 4
n -t 11.728231 -s 24 -S UP -v circle -c blue -x 453.6267 -y 286.51807 -z 4
n -t 11.929101 -s 18 -S UP -v circle -c blue -x 141.27394 -y 29.394506 -z 4
n -t 11.985619 -s 24 -S UP -v circle -c blue -x 456.42938 -y 284.82516 -z 4
n -t 12.002823 -s 30 -S UP -v circle -c blue -x 154.94974 -y 135.30103 -z 4
n -t 12.03422 -s 33 -S UP -v circle -c blue -x 391.13214 -y 476.16016 -z 4
n -t 12.198808 -s 26 -S UP -v circle -c blue -x 476.1287 -y 108.70158 -z 4
n -t 12.344265 -s 43 -S UP -v circle -c blue -x 276.60135 -y 179.15053 -z 4
n -t 12.454251 -s 40 -S UP -v circle -c blue -x 404.85153 -y 326.35278 -z 4
n -t 13.387942 -s 22 -S UP -v circle -c blue -x 193.36676 -y 441.89255 -z 4
n -t 13.793529 -s 17 -S UP -v circle -c blue -x 105.24907 -y 365.91403 -z 4
n -t 13.970723 -s 21 -S UP -v circle -c blue -x 156.32852 -y 120.93993 -z 4
n -t 14.371787 -s 44 -S UP -v circle -c blue -x 244.80908 -y 435.63098 -z 4
n -t 14.409607 -s 13 -S UP -v circle -c blue -x 180.70392 -y 172.40111 -z 4
n -t 14.475827 -s 44 -S UP -v circle -c blue -x 246.2996 -y 436.05225 -z 4
n -t 15.964183 -s 16 -S UP -v circle -c blue -x 343.04892 -y 299.78256 -z 4
n -t 16.016893 -s 37 -S UP -v circle -c blue -x 469.40277 -y 45.016975 -z 4
n -t 16.156267 -s 33 -S UP -v circle -c blue -x 370.15155 -y 452.91473 -z 4
n -t 16.552057 -s 28 -S UP -v circle -c blue -x 417.23697 -y 104.29098 -z 4
n -t 17.39641 -s 11 -S UP -v circle -c blue -x 20.865662 -y 83.87768 -z 4
n -t 17.46377 -s 31 -S UP -v circle -c blue -x 161.87215 -y 338.82767 -z 4
n -t 17.585527 -s 27 -S UP -v circle -c blue -x 157.66626 -y 221.59848 -z 4
n -t 17.721252 -s 13 -S UP -v circle -c blue -x 168.6946 -y 126.09355 -z 4
n -t 17.83071 -s 35 -S UP -v circle -c blue -x 476.30334 -y 205.99098 -z 4
n -t 18.247673 -s 18 -S UP -v circle -c blue -x 190.88725 -y 10.17316 -z 4
n -t 18.265388 -s 18 -S UP -v circle -c blue -x 190.73204 -y 10.449347 -z 4
n -t 18.423138 -s 28 -S UP -v circle -c blue -x 418.73206 -y 81.89976 -z 4
n -t 18.748161 -s 33 -S UP -v circle -c blue -x 355.56946 -y 408.5239 -z 4
n -t 19.163452 -s 31 -S UP -v circle -c blue -x 191.01137 -y 335.80978 -z 4
n -t 19.917805 -s 29 -S UP -v circle -c blue -x 303.07428 -y 313.91064 -z 4
n -t 20.106035 -s 29 -S UP -v circle -c blue -x 303.4714 -y 317.59674 -z 4
n -t 20.64733 -s 19 -S UP -v circle -c blue -x 330.1961 -y 323.31708 -z 4
n -t 21.623201 -s 11 -S UP -v circle -c blue -x 51.543415 -y 76.914345 -z 4
n -t 21.827435 -s 26 -S UP -v circle -c blue -x 450.14502 -y 80.842636 -z 4
n -t 23.622355 -s 17 -S UP -v circle -c blue -x 223.36319 -y 288.1042 -z 4
n -t 24.025244 -s 39 -S UP -v circle -c blue -x 55.728615 -y 91.103096 -z 4
n -t 24.5323 -s 31 -S UP -v circle -c blue -x 251.96523 -y 326.62048 -z 4
n -t 24.85264 -s 13 -S UP -v circle -c blue -x 204.22156 -y 182.002 -z 4
n -t 24.947123 -s 13 -S UP -v circle -c blue -x 202.6504 -y 181.24284 -z 4
n -t 25.945004 -s 19 -S UP -v circle -c blue -x 355.94528 -y 350.9852 -z 4
n -t 26.503874 -s 47 -S UP -v circle -c blue -x 464.83514 -y 455.47662 -z 4
n -t 26.63159 -s 49 -S UP -v circle -c blue -x 9.974301 -y 465.06223 -z 4
n -t 27.160975 -s 47 -S UP -v circle -c blue -x 476.63058 -y 456.5991 -z 4
n -t 29.268604 -s 17 -S UP -v circle -c blue -x 208.76764 -y 272.1508 -z 4
n -t 29.39661 -s 47 -S UP -v circle -c blue -x 487.2279 -y 482.61948 -z 4
n -t 29.441736 -s 13 -S UP -v circle -c blue -x 258.85645 -y 187.23744 -z 4
n -t 31.082876 -s 37 -S UP -v circle -c blue -x 478.25888 -y 54.425674 -z 4
n -t 31.0965 -s 26 -S UP -v circle -c blue -x 472.88065 -y 122.12643 -z 4
n -t 31.609554 -s 17 -S UP -v circle -c blue -x 181.12631 -y 236.04268 -z 4
n -t 31.872913 -s 40 -S UP -v circle -c blue -x 375.73563 -y 291.3132 -z 4
n -t 32.13926 -s 24 -S UP -v circle -c blue -x 456.64468 -y 245.42525 -z 4
n -t 32.18285 -s 45 -S UP -v circle -c blue -x 476.99017 -y 493.25552 -z 4
n -t 33.845234 -s 40 -S UP -v circle -c blue -x 371.18155 -y 291.8946 -z 4
n -t 34.319614 -s 47 -S UP -v circle -c blue -x 459.26254 -y 474.3112 -z 4
n -t 35.029217 -s 47 -S UP -v circle -c blue -x 458.45905 -y 468.904 -z 4
n -t 35.26163 -s 28 -S UP -v circle -c blue -x 337.56705 -y 20.804808 -z 4
n -t 35.408775 -s 24 -S UP -v circle -c blue -x 483.18933 -y 253.30443 -z 4
n -t 35.839825 -s 33 -S UP -v circle -c blue -x 126.08126 -y 382.49643 -z 4
n -t 35.985367 -s 47 -S UP -v circle -c blue -x 448.36984 -y 476.38065 -z 4
n -t 37.309677 -s 21 -S UP -v circle -c blue -x 158.10504 -y 130.6503 -z 4
n -t 37.99324 -s 18 -S UP -v circle -c blue -x 231.16168 -y 51.153496 -z 4
n -t 39.331734 -s 20 -S UP -v circle -c blue -x 391.96567 -y 187.45364 -z 4
n -t 39.60665 -s 13 -S UP -v circle -c blue -x 362.8098 -y 238.01773 -z 4
n -t 41.445126 -s 33 -S UP -v circle -c blue -x 143.12733 -y 399.67874 -z 4
n -t 42.92223 -s 29 -S UP -v circle -c blue -x 454.01166 -y 182.4237 -z 4
n -t 43.829613 -s 12 -S UP -v circle -c blue -x 353.3863 -y 436.4499 -z 4
n -t 43.911263 -s 22 -S UP -v circle -c blue -x 270.68546 -y 371.86517 -z 4
n -t 43.973946 -s 20 -S UP -v circle -c blue -x 370.30112 -y 270.8986 -z 4
n -t 44.82528 -s 24 -S UP -v circle -c blue -x 479.52512 -y 266.78412 -z 4
n -t 45.29563 -s 21 -S UP -v circle -c blue -x 107.698586 -y 135.16454 -z 4
n -t 45.357254 -s 45 -S UP -v circle -c blue -x 449.36057 -y 465.15906 -z 4
n -t 45.528904 -s 22 -S UP -v circle -c blue -x 288.11383 -y 398.99527 -z 4
n -t 45.708447 -s 39 -S UP -v circle -c blue -x 1.9785483 -y 47.155437 -z 4
n -t 46.00987 -s 22 -S UP -v circle -c blue -x 283.8247 -y 404.88004 -z 4
n -t 46.0206 -s 47 -S UP -v circle -c blue -x 457.3802 -y 470.82077 -z 4
n -t 46.027092 -s 20 -S UP -v circle -c blue -x 392.4045 -y 273.13165 -z 4
n -t 47.132496 -s 13 -S UP -v circle -c blue -x 282.05743 -y 301.10065 -z 4
n -t 47.181087 -s 33 -S UP -v circle -c blue -x 80.869896 -y 410.74005 -z 4
n -t 47.6788 -s 38 -S UP -v circle -c blue -x 457.0927 -y 162.47768 -z 4
n -t 47.976936 -s 20 -S UP -v circle -c blue -x 374.63937 -y 280.95377 -z 4
n -t 48.672775 -s 24 -S UP -v circle -c blue -x 464.20306 -y 295.1368 -z 4
n -t 51.61608 -s 13 -S UP -v circle -c blue -x 247.56726 -y 280.59494 -z 4
n -t 51.68314 -s 46 -S UP -v circle -c blue -x 319.18948 -y 270.16168 -z 4
n -t 53.13303 -s 19 -S UP -v circle -c blue -x 378.68045 -y 238.62268 -z 4
n -t 53.260155 -s 20 -S UP -v circle -c blue -x 440.02908 -y 318.27475 -z 4
n -t 53.82565 -s 21 -S UP -v circle -c blue -x 205.70468 -y 163.94446 -z 4
n -t 54.058167 -s 19 -S UP -v circle -c blue -x 388.9581 -y 227.44753 -z 4
n -t 54.792053 -s 37 -S UP -v circle -c blue -x 425.54535 -y 134.8127 -z 4
n -t 55.10302 -s 11 -S UP -v circle -c blue -x 77.47291 -y 211.30318 -z 4
n -t 55.170044 -s 41 -S UP -v circle -c blue -x 97.28911 -y 8.55341 -z 4
n -t 55.421177 -s 24 -S UP -v circle -c blue -x 503.9941 -y 274.10294 -z 4
n -t 55.489277 -s 24 -S UP -v circle -c blue -x 502.89432 -y 274.50934 -z 4
n -t 55.57511 -s 50 -S UP -v circle -c blue -x 271.69766 -y 474.48547 -z 4
n -t 56.841736 -s 19 -S UP -v circle -c blue -x 429.1084 -y 224.55656 -z 4
n -t 57.186745 -s 18 -S UP -v circle -c blue -x 102.85722 -y 62.905518 -z 4
n -t 57.365475 -s 12 -S UP -v circle -c blue -x 288.90094 -y 182.28142 -z 4
n -t 57.88583 -s 29 -S UP -v circle -c blue -x 481.74622 -y 10.753838 -z 4
n -t 58.073715 -s 12 -S UP -v circle -c blue -x 293.19016 -y 189.07166 -z 4
n -t 58.296295 -s 37 -S UP -v circle -c blue -x 359.7472 -y 143.1178 -z 4
n -t 58.543095 -s 39 -S UP -v circle -c blue -x 163.83104 -y 63.563766 -z 4
n -t 58.903072 -s 13 -S UP -v circle -c blue -x 353.50714 -y 260.90088 -z 4
n -t 59.616154 -s 37 -S UP -v circle -c blue -x 380.84775 -y 132.48903 -z 4
n -t 60.2604 -s 26 -S UP -v circle -c blue -x 448.1859 -y 97.729004 -z 4
n -t 60.543777 -s 35 -S UP -v circle -c blue -x 452.18735 -y 169.44518 -z 4
n -t 61.00377 -s 11 -S UP -v circle -c blue -x 34.738358 -y 178.39561 -z 4
n -t 61.080315 -s 48 -S UP -v circle -c blue -x 382.76794 -y 182.23015 -z 4
n -t 61.140102 -s 24 -S UP -v circle -c blue -x 492.3069 -y 307.7074 -z 4
n -t 61.254448 -s 18 -S UP -v circle -c blue -x 126.39607 -y 6.3459086 -z 4
n -t 62.01197 -s 41 -S UP -v circle -c blue -x 169.94067 -y 108.735115 -z 4
n -t 62.2514 -s 20 -S UP -v circle -c blue -x 466.82574 -y 188.41972 -z 4
n -t 62.2844 -s 11 -S UP -v circle -c blue -x 22.833582 -y 172.41995 -z 4
n -t 63.424076 -s 38 -S UP -v circle -c blue -x 490.91153 -y 151.39606 -z 4
n -t 63.48276 -s 22 -S UP -v circle -c blue -x 364.12067 -y 372.86688 -z 4
n -t 63.946255 -s 13 -S UP -v circle -c blue -x 275.83615 -y 265.83908 -z 4
n -t 63.983654 -s 35 -S UP -v circle -c blue -x 458.15326 -y 185.38321 -z 4
n -t 64.002464 -s 19 -S UP -v circle -c blue -x 427.04355 -y 211.09035 -z 4
n -t 64.610535 -s 48 -S UP -v circle -c blue -x 435.91476 -y 136.25525 -z 4
n -t 65.22806 -s 14 -S UP -v circle -c blue -x 61.052845 -y 10.341177 -z 4
n -t 65.287025 -s 20 -S UP -v circle -c blue -x 482.02866 -y 155.60161 -z 4
n -t 65.55683 -s 21 -S UP -v circle -c blue -x 205.23186 -y 216.74823 -z 4
n -t 65.8623 -s 48 -S UP -v circle -c blue -x 429.87845 -y 147.71912 -z 4
n -t 65.88289 -s 12 -S UP -v circle -c blue -x 231.83672 -y 186.93562 -z 4
n -t 65.89115 -s 48 -S UP -v circle -c blue -x 429.5543 -y 147.76984 -z 4
n -t 67.9861 -s 26 -S UP -v circle -c blue -x 457.97388 -y 102.91895 -z 4
n -t 69.22686 -s 24 -S UP -v circle -c blue -x 488.37418 -y 307.44147 -z 4
n -t 69.930824 -s 38 -S UP -v circle -c blue -x 420.16193 -y 73.62987 -z 4
n -t 70.4662 -s 35 -S UP -v circle -c blue -x 459.35635 -y 70.473076 -z 4
n -t 70.51671 -s 13 -S UP -v circle -c blue -x 310.52487 -y 178.4847 -z 4
n -t 70.80541 -s 35 -S UP -v circle -c blue -x 459.73694 -y 66.88929 -z 4
n -t 71.018326 -s 33 -S UP -v circle -c blue -x 210.51112 -y 223.97044 -z 4
n -t 71.678764 -s 43 -S UP -v circle -c blue -x 269.37848 -y 358.43927 -z 4
n -t 72.535324 -s 13 -S UP -v circle -c blue -x 307.25662 -y 211.9253 -z 4
n -t 73.32874 -s 34 -S UP -v circle -c blue -x 341.66348 -y 352.639 -z 4
n -t 73.62088 -s 34 -S UP -v circle -c blue -x 341.70883 -y 356.1328 -z 4
n -t 74.92762 -s 22 -S UP -v circle -c blue -x 442.36847 -y 298.78918 -z 4
n -t 74.93368 -s 35 -S UP -v circle -c blue -x 465.5066 -y 145.12663 -z 4
n -t 75.059364 -s 35 -S UP -v circle -c blue -x 466.36105 -y 144.6164 -z 4
n -t 75.32061 -s 35 -S UP -v circle -c blue -x 466.3253 -y 147.4993 -z 4
n -t 75.47054 -s 11 -S UP -v circle -c blue -x 111.538445 -y 142.01237 -z 4
n -t 76.368744 -s 45 -S UP -v circle -c blue -x 481.40317 -y 475.86652 -z 4
n -t 76.578186 -s 20 -S UP -v circle -c blue -x 435.1035 -y 61.40267 -z 4
n -t 77.588356 -s 13 -S UP -v circle -c blue -x 315.6976 -y 264.40045 -z 4
n -t 78.61663 -s 43 -S UP -v circle -c blue -x 219.22508 -y 459.10452 -z 4
n -t 78.99873 -s 29 -S UP -v circle -c blue -x 415.6337 -y 13.983102 -z 4
n -t 79.18324 -s 35 -S UP -v circle -c blue -x 458.57135 -y 158.1227 -z 4
n -t 79.48228 -s 38 -S UP -v circle -c blue -x 485.52194 -y 16.788286 -z 4
n -t 79.74029 -s 39 -S UP -v circle -c blue -x 100.46752 -y 131.0718 -z 4
n -t 79.953125 -s 35 -S UP -v circle -c blue -x 455.70236 -y 161.32556 -z 4
n -t 80.52179 -s 35 -S UP -v circle -c blue -x 455.3716 -y 159.03105 -z 4
n -t 80.976036 -s 33 -S UP -v circle -c blue -x 166.93837 -y 161.94156 -z 4
n -t 82.41134 -s 35 -S UP -v circle -c blue -x 441.74393 -y 138.10278 -z 4
n -t 83.484924 -s 40 -S UP -v circle -c blue -x 411.662 -y 338.10086 -z 4
n -t 83.61541 -s 24 -S UP -v circle -c blue -x 472.20334 -y 300.47876 -z 4
n -t 84.556435 -s 22 -S UP -v circle -c blue -x 435.32776 -y 284.4933 -z 4
n -t 84.72181 -s 30 -S UP -v circle -c blue -x 23.577414 -y 48.23224 -z 4
n -t 85.125755 -s 28 -S UP -v circle -c blue -x 255.16492 -y 79.91576 -z 4
n -t 85.63402 -s 43 -S UP -v circle -c blue -x 160.95386 -y 346.62756 -z 4
n -t 86.33733 -s 35 -S UP -v circle -c blue -x 423.76544 -y 163.73643 -z 4
n -t 87.427986 -s 38 -S UP -v circle -c blue -x 391.50235 -y 41.254414 -z 4
n -t 87.45509 -s 21 -S UP -v circle -c blue -x 98.21121 -y 315.4315 -z 4
n -t 88.29005 -s 34 -S UP -v circle -c blue -x 306.18472 -y 283.99353 -z 4
n -t 88.560036 -s 34 -S UP -v circle -c blue -x 307.84592 -y 283.34192 -z 4
n -t 88.71665 -s 32 -S UP -v circle -c blue -x 116.36587 -y 151.17262 -z 4
n -t 88.78171 -s 12 -S UP -v circle -c blue -x 362.7743 -y 353.02408 -z 4
n -t 88.87653 -s 13 -S UP -v circle -c blue -x 212.53897 -y 239.92345 -z 4
n -t 89.468155 -s 28 -S UP -v circle -c blue -x 200.21793 -y 144.97807 -z 4
n -t 89.77148 -s 35 -S UP -v circle -c blue -x 421.1533 -y 170.0839 -z 4
n -t 90.14783 -s 43 -S UP -v circle -c blue -x 156.21628 -y 326.6574 -z 4
n -t 90.16752 -s 28 -S UP -v circle -c blue -x 208.83922 -y 136.77214 -z 4
n -t 90.28431 -s 13 -S UP -v circle -c blue -x 236.0166 -y 225.4373 -z 4
n -t 90.719955 -s 39 -S UP -v circle -c blue -x 25.355284 -y 98.56877 -z 4
n -t 91.313324 -s 22 -S UP -v circle -c blue -x 367.5539 -y 275.30753 -z 4
n -t 91.64903 -s 20 -S UP -v circle -c blue -x 196.10065 -y 6.664143 -z 4
n -t 93.23414 -s 18 -S UP -v circle -c blue -x 53.68344 -y 168.6542 -z 4
n -t 93.435936 -s 16 -S UP -v circle -c blue -x 317.18942 -y 448.65894 -z 4
n -t 93.676544 -s 22 -S UP -v circle -c blue -x 359.5632 -y 276.44797 -z 4
n -t 93.83003 -s 39 -S UP -v circle -c blue -x 0.6812591 -y 114.50748 -z 4
n -t 96.5822 -s 33 -S UP -v circle -c blue -x 99.17227 -y 208.5558 -z 4
n -t 96.77774 -s 20 -S UP -v circle -c blue -x 177.30928 -y 18.226778 -z 4
n -t 97.6674 -s 39 -S UP -v circle -c blue -x 33.45218 -y 103.86872 -z 4
n -t 98.10421 -s 13 -S UP -v circle -c blue -x 221.38438 -y 267.23962 -z 4
n -t 98.26133 -s 41 -S UP -v circle -c blue -x 4.654533 -y 292.89566 -z 4
n -t 98.98287 -s 28 -S UP -v circle -c blue -x 113.813194 -y 136.41951 -z 4
n -t 99.00481 -s 33 -S UP -v circle -c blue -x 111.55423 -y 173.6184 -z 4
n -t 99.34155 -s 20 -S UP -v circle -c blue -x 168.28566 -y 29.661358 -z 4
n -t 99.53777 -s 39 -S UP -v circle -c blue -x 22.44501 -y 97.845604 -z 4
n -t 100.37816 -s 29 -S UP -v circle -c blue -x 419.77667 -y 71.56774 -z 4
n -t 101.0471 -s 32 -S UP -v circle -c blue -x 259.44528 -y 336.45245 -z 4
n -t 101.53459 -s 30 -S UP -v circle -c blue -x 229.30458 -y 211.62885 -z 4
n -t 102.35863 -s 41 -S UP -v circle -c blue -x 56.69794 -y 256.49982 -z 4
n -t 102.90865 -s 11 -S UP -v circle -c blue -x 40.626747 -y 255.93845 -z 4
n -t 103.01197 -s 34 -S UP -v circle -c blue -x 283.13968 -y 280.19022 -z 4
n -t 103.37077 -s 47 -S UP -v circle -c blue -x 442.5529 -y 454.35013 -z 4
n -t 103.55591 -s 36 -S UP -v circle -c blue -x 153.981 -y 65.76052 -z 4
n -t 104.60887 -s 19 -S UP -v circle -c blue -x 487.01892 -y 58.584454 -z 4
n -t 104.803116 -s 35 -S UP -v circle -c blue -x 427.32043 -y 123.97201 -z 4
n -t 104.818535 -s 13 -S UP -v circle -c blue -x 254.69473 -y 149.46799 -z 4
n -t 105.05728 -s 30 -S UP -v circle -c blue -x 210.7207 -y 216.12273 -z 4
n -t 105.394554 -s 13 -S UP -v circle -c blue -x 251.77908 -y 155.94936 -z 4
n -t 105.42697 -s 26 -S UP -v circle -c blue -x 457.18533 -y 86.79298 -z 4
n -t 105.81902 -s 26 -S UP -v circle -c blue -x 457.92365 -y 93.06505 -z 4
n -t 105.887825 -s 40 -S UP -v circle -c blue -x 366.04272 -y 305.5856 -z 4
n -t 106.36368 -s 24 -S UP -v circle -c blue -x 473.40598 -y 241.56473 -z 4
n -t 106.405495 -s 34 -S UP -v circle -c blue -x 277.01822 -y 260.4159 -z 4
n -t 106.58184 -s 19 -S UP -v circle -c blue -x 483.58258 -y 77.50244 -z 4
n -t 107.33502 -s 26 -S UP -v circle -c blue -x 452.38745 -y 81.0346 -z 4
n -t 107.9315 -s 39 -S UP -v circle -c blue -x 62.08398 -y 150.18832 -z 4
n -t 108.78019 -s 19 -S UP -v circle -c blue -x 454.5941 -y 51.226105 -z 4
n -t 108.81984 -s 41 -S UP -v circle -c blue -x 23.265924 -y 328.98965 -z 4
n -t 108.82466 -s 42 -S UP -v circle -c blue -x 331.75122 -y 197.29654 -z 4
n -t 109.63088 -s 30 -S UP -v circle -c blue -x 274.05478 -y 258.1856 -z 4
n -t 110.046036 -s 40 -S UP -v circle -c blue -x 377.92538 -y 345.83096 -z 4
n -t 110.228745 -s 42 -S UP -v circle -c blue -x 344.46933 -y 195.63898 -z 4
n -t 110.31322 -s 41 -S UP -v circle -c blue -x 13.707264 -y 332.72693 -z 4
n -t 110.45269 -s 43 -S UP -v circle -c blue -x 173.95549 -y 164.31352 -z 4
n -t 110.50822 -s 43 -S UP -v circle -c blue -x 174.14325 -y 163.23778 -z 4
n -t 111.27856 -s 40 -S UP -v circle -c blue -x 374.04483 -y 329.621 -z 4
n -t 111.36927 -s 22 -S UP -v circle -c blue -x 351.04614 -y 377.31503 -z 4
n -t 111.88017 -s 30 -S UP -v circle -c blue -x 236.82574 -y 257.88257 -z 4
n -t 113.88943 -s 29 -S UP -v circle -c blue -x 429.88278 -y 15.2181835 -z 4
n -t 114.69876 -s 24 -S UP -v circle -c blue -x 511.59567 -y 241.15553 -z 4
n -t 114.99633 -s 35 -S UP -v circle -c blue -x 409.35303 -y 49.147438 -z 4
n -t 115.018005 -s 30 -S UP -v circle -c blue -x 296.99673 -y 255.96068 -z 4
n -t 115.04697 -s 42 -S UP -v circle -c blue -x 279.61923 -y 246.5901 -z 4
n -t 115.97776 -s 22 -S UP -v circle -c blue -x 399.28207 -y 445.49332 -z 4
n -t 116.22405 -s 47 -S UP -v circle -c blue -x 482.3469 -y 511.5712 -z 4
n -t 116.47123 -s 39 -S UP -v circle -c blue -x 102.48381 -y 137.74007 -z 4
n -t 116.695335 -s 24 -S UP -v circle -c blue -x 512.54694 -y 250.79103 -z 4
n -t 117.15119 -s 39 -S UP -v circle -c blue -x 108.239815 -y 134.36095 -z 4
n -t 117.32796 -s 33 -S UP -v circle -c blue -x 2.931113 -y 185.0616 -z 4
n -t 117.76454 -s 19 -S UP -v circle -c blue -x 442.56738 -y 48.07807 -z 4
n -t 117.77926 -s 44 -S UP -v circle -c blue -x 317.43774 -y 394.77432 -z 4
n -t 118.04842 -s 40 -S UP -v circle -c blue -x 401.5517 -y 298.57446 -z 4
n -t 118.160736 -s 26 -S UP -v circle -c blue -x 423.5207 -y 100.68354 -z 4
n -t 118.20288 -s 16 -S UP -v circle -c blue -x 458.77536 -y 490.5071 -z 4
n -t 118.84065 -s 16 -S UP -v circle -c blue -x 468.11594 -y 499.14554 -z 4
n -t 119.23385 -s 33 -S UP -v circle -c blue -x 5.057066 -y 190.69257 -z 4
n -t 119.42191 -s 39 -S UP -v circle -c blue -x 129.95462 -y 130.8677 -z 4
n -t 119.67074 -s 30 -S UP -v circle -c blue -x 282.8227 -y 219.17606 -z 4
n -t 119.757835 -s 29 -S UP -v circle -c blue -x 385.17596 -y 43.112305 -z 4
n -t 120.35332 -s 47 -S UP -v circle -c blue -x 448.2456 -y 493.08197 -z 4
n -t 120.6874 -s 35 -S UP -v circle -c blue -x 470.84308 -y 1.1617473 -z 4
n -t 120.89839 -s 42 -S UP -v circle -c blue -x 240.78557 -y 240.48338 -z 4
n -t 121.710815 -s 11 -S UP -v circle -c blue -x 50.815758 -y 227.15538 -z 4
n -t 121.86309 -s 41 -S UP -v circle -c blue -x 101.54704 -y 468.29837 -z 4
n -t 124.34889 -s 43 -S UP -v circle -c blue -x 118.10937 -y 144.76686 -z 4
n -t 124.632034 -s 44 -S UP -v circle -c blue -x 243.01056 -y 418.95483 -z 4
n -t 125.07165 -s 29 -S UP -v circle -c blue -x 341.43286 -y 86.91007 -z 4
n -t 125.11929 -s 34 -S UP -v circle -c blue -x 247.90584 -y 295.84335 -z 4
n -t 125.51007 -s 30 -S UP -v circle -c blue -x 329.0877 -y 238.21623 -z 4
n -t 126.00045 -s 35 -S UP -v circle -c blue -x 490.05716 -y 81.51885 -z 4
n -t 126.60199 -s 29 -S UP -v circle -c blue -x 324.30133 -y 78.60015 -z 4
n -t 127.01355 -s 43 -S UP -v circle -c blue -x 155.57855 -y 138.06386 -z 4
n -t 127.05724 -s 38 -S UP -v circle -c blue -x 416.11917 -y 58.395626 -z 4
n -t 127.1669 -s 44 -S UP -v circle -c blue -x 248.43683 -y 425.25696 -z 4
n -t 127.337425 -s 26 -S UP -v circle -c blue -x 422.76328 -y 96.52065 -z 4
n -t 127.95823 -s 45 -S UP -v circle -c blue -x 490.4677 -y 451.34644 -z 4
n -t 128.17116 -s 42 -S UP -v circle -c blue -x 173.07779 -y 242.56805 -z 4
n -t 128.27158 -s 26 -S UP -v circle -c blue -x 428.89362 -y 111.14385 -z 4
n -t 128.34631 -s 22 -S UP -v circle -c blue -x 498.81137 -y 387.4313 -z 4
n -t 128.42932 -s 13 -S UP -v circle -c blue -x 141.68378 -y 207.09715 -z 4