# Trace file generated by Jist/Swans Version 1.0.6. at Fri Jul 26 18:33:36 BRT 2013
V -t * -v 1.0a5 -a 0
W -t * -x 410 -y 410
A -t * -n 1 -p 0 -o 0xffffffff -c 31 -a 1
A -t * -h 1 -m 2147483647 -s 0
n -t 0.0 -s 1 -S UP -v circle -c red -x 0.0 -y 0.0 -z 4
n -t 0.0 -s 2 -S UP -v circle -c red -x 0.5 -y 0.0 -z 4
n -t 0.0 -s 3 -S UP -v circle -c red -x 1.0 -y 0.0 -z 4
n -t 0.0 -s 4 -S UP -v circle -c red -x 1.5 -y 0.0 -z 4
n -t 0.0 -s 5 -S UP -v circle -c red -x 2.0 -y 0.0 -z 4
n -t 0.0 -s 6 -S UP -v circle -c red -x 2.5 -y 0.0 -z 4
n -t 0.0 -s 7 -S UP -v circle -c red -x 3.0 -y 0.0 -z 4
n -t 0.0 -s 8 -S UP -v circle -c red -x 3.5 -y 0.0 -z 4
n -t 0.0 -s 9 -S UP -v circle -c blue -x 4.0 -y 0.0 -z 4
n -t 0.0 -s 10 -S UP -v circle -c blue -x 4.5 -y 0.0 -z 4
n -t 0.0 -s 11 -S UP -v circle -c blue -x 5.0 -y 0.0 -z 4
n -t 0.0 -s 12 -S UP -v circle -c blue -x 5.5 -y 0.0 -z 4
n -t 0.0 -s 13 -S UP -v circle -c blue -x 6.0 -y 0.0 -z 4
n -t 0.0 -s 14 -S UP -v circle -c blue -x 6.5 -y 0.0 -z 4
n -t 0.0 -s 15 -S UP -v circle -c blue -x 7.0 -y 0.0 -z 4
n -t 0.0 -s 16 -S UP -v circle -c blue -x 7.5 -y 0.0 -z 4
n -t 0.0 -s 17 -S UP -v circle -c blue -x 8.0 -y 0.0 -z 4
n -t 0.0 -s 18 -S UP -v circle -c blue -x 8.5 -y 0.0 -z 4
n -t 0.0 -s 19 -S UP -v circle -c blue -x 9.0 -y 0.0 -z 4
n -t 0.0 -s 20 -S UP -v circle -c blue -x 9.5 -y 0.0 -z 4
n -t 0.0 -s 21 -S UP -v circle -c blue -x 10.0 -y 0.0 -z 4
n -t 0.0 -s 22 -S UP -v circle -c blue -x 10.5 -y 0.0 -z 4
n -t 0.0 -s 23 -S UP -v circle -c blue -x 11.0 -y 0.0 -z 4
n -t 0.0 -s 24 -S UP -v circle -c blue -x 11.5 -y 0.0 -z 4
n -t 0.0 -s 25 -S UP -v circle -c blue -x 12.0 -y 0.0 -z 4
n -t 0.0 -s 26 -S UP -v circle -c blue -x 12.5 -y 0.0 -z 4
n -t 0.0 -s 27 -S UP -v circle -c blue -x 13.0 -y 0.0 -z 4
n -t 0.0 -s 28 -S UP -v circle -c blue -x 13.5 -y 0.0 -z 4
n -t 0.0 -s 29 -S UP -v circle -c blue -x 14.0 -y 0.0 -z 4
n -t 0.0 -s 30 -S UP -v circle -c blue -x 14.5 -y 0.0 -z 4
n -t 0.0 -s 31 -S UP -v circle -c blue -x 15.0 -y 0.0 -z 4
n -t 0.0 -s 32 -S UP -v circle -c blue -x 15.5 -y 0.0 -z 4
n -t 0.0 -s 33 -S UP -v circle -c blue -x 16.0 -y 0.0 -z 4
n -t 0.0 -s 34 -S UP -v circle -c blue -x 16.5 -y 0.0 -z 4
n -t 0.0 -s 35 -S UP -v circle -c blue -x 17.0 -y 0.0 -z 4
n -t 0.0 -s 36 -S UP -v circle -c blue -x 17.5 -y 0.0 -z 4
n -t 0.0 -s 37 -S UP -v circle -c blue -x 18.0 -y 0.0 -z 4
n -t 0.0 -s 38 -S UP -v circle -c blue -x 18.5 -y 0.0 -z 4
n -t 0.0 -s 39 -S UP -v circle -c blue -x 19.0 -y 0.0 -z 4
n -t 0.0 -s 40 -S UP -v circle -c blue -x 19.5 -y 0.0 -z 4
n -t 0.0 -s 41 -S UP -v circle -c blue -x 20.0 -y 0.0 -z 4
n -t 0.0 -s 42 -S UP -v circle -c blue -x 20.5 -y 0.0 -z 4
n -t 0.0 -s 43 -S UP -v circle -c blue -x 21.0 -y 0.0 -z 4
n -t 0.0 -s 44 -S UP -v circle -c blue -x 21.5 -y 0.0 -z 4
n -t 0.0 -s 45 -S UP -v circle -c blue -x 22.0 -y 0.0 -z 4
n -t 0.0 -s 46 -S UP -v circle -c blue -x 22.5 -y 0.0 -z 4
n -t 0.0 -s 47 -S UP -v circle -c blue -x 23.0 -y 0.0 -z 4
n -t 0.0 -s 48 -S UP -v circle -c blue -x 23.5 -y 0.0 -z 4
n -t 0.0 -s 49 -S UP -v circle -c blue -x 24.0 -y 0.0 -z 4
n -t 0.0 -s 50 -S UP -v circle -c blue -x 24.5 -y 0.0 -z 4
n -t 0.0 -s 1 -S UP -v circle -c red -x 0.0 -y 0.0 -z 4
n -t 0.0 -s 50 -S UP -v circle -c blue -x 24.5 -y 0.0 -z 4
n -t 0.0 -s 3 -S UP -v circle -c red -x 1.0 -y 0.0 -z 4
n -t 0.0 -s 7 -S UP -v circle -c red -x 3.0 -y 0.0 -z 4
n -t 0.0 -s 49 -S UP -v circle -c blue -x 24.0 -y 0.0 -z 4
n -t 0.0 -s 15 -S UP -v circle -c blue -x 7.0 -y 0.0 -z 4
n -t 0.0 -s 31 -S UP -v circle -c blue -x 15.0 -y 0.0 -z 4
n -t 0.0 -s 32 -S UP -v circle -c blue -x 15.5 -y 0.0 -z 4
n -t 0.0 -s 16 -S UP -v circle -c blue -x 7.5 -y 0.0 -z 4
n -t 0.0 -s 33 -S UP -v circle -c blue -x 16.0 -y 0.0 -z 4
n -t 0.0 -s 34 -S UP -v circle -c blue -x 16.5 -y 0.0 -z 4
n -t 0.0 -s 8 -S UP -v circle -c red -x 3.5 -y 0.0 -z 4
n -t 0.0 -s 17 -S UP -v circle -c blue -x 8.0 -y 0.0 -z 4
n -t 0.0 -s 35 -S UP -v circle -c blue -x 17.0 -y 0.0 -z 4
n -t 0.0 -s 36 -S UP -v circle -c blue -x 17.5 -y 0.0 -z 4
n -t 0.0 -s 18 -S UP -v circle -c blue -x 8.5 -y 0.0 -z 4
n -t 0.0 -s 37 -S UP -v circle -c blue -x 18.0 -y 0.0 -z 4
n -t 0.0 -s 38 -S UP -v circle -c blue -x 18.5 -y 0.0 -z 4
n -t 0.0 -s 4 -S UP -v circle -c red -x 1.5 -y 0.0 -z 4
n -t 0.0 -s 9 -S UP -v circle -c blue -x 4.0 -y 0.0 -z 4
n -t 0.0 -s 48 -S UP -v circle -c blue -x 23.5 -y 0.0 -z 4
n -t 0.0 -s 19 -S UP -v circle -c blue -x 9.0 -y 0.0 -z 4
n -t 0.0 -s 39 -S UP -v circle -c blue -x 19.0 -y 0.0 -z 4
n -t 0.0 -s 40 -S UP -v circle -c blue -x 19.5 -y 0.0 -z 4
n -t 0.0 -s 20 -S UP -v circle -c blue -x 9.5 -y 0.0 -z 4
n -t 0.0 -s 41 -S UP -v circle -c blue -x 20.0 -y 0.0 -z 4
n -t 0.0 -s 42 -S UP -v circle -c blue -x 20.5 -y 0.0 -z 4
n -t 0.0 -s 10 -S UP -v circle -c blue -x 4.5 -y 0.0 -z 4
n -t 0.0 -s 21 -S UP -v circle -c blue -x 10.0 -y 0.0 -z 4
n -t 0.0 -s 43 -S UP -v circle -c blue -x 21.0 -y 0.0 -z 4
n -t 0.0 -s 44 -S UP -v circle -c blue -x 21.5 -y 0.0 -z 4
n -t 0.0 -s 22 -S UP -v circle -c blue -x 10.5 -y 0.0 -z 4
n -t 0.0 -s 45 -S UP -v circle -c blue -x 22.0 -y 0.0 -z 4
n -t 0.0 -s 46 -S UP -v circle -c blue -x 22.5 -y 0.0 -z 4
n -t 0.0 -s 2 -S UP -v circle -c red -x 0.5 -y 0.0 -z 4
n -t 0.0 -s 5 -S UP -v circle -c red -x 2.0 -y 0.0 -z 4
n -t 0.0 -s 11 -S UP -v circle -c blue -x 5.0 -y 0.0 -z 4
n -t 0.0 -s 23 -S UP -v circle -c blue -x 11.0 -y 0.0 -z 4
n -t 0.0 -s 47 -S UP -v circle -c blue -x 23.0 -y 0.0 -z 4
n -t 0.0 -s 24 -S UP -v circle -c blue -x 11.5 -y 0.0 -z 4
n -t 0.0 -s 12 -S UP -v circle -c blue -x 5.5 -y 0.0 -z 4
n -t 0.0 -s 25 -S UP -v circle -c blue -x 12.0 -y 0.0 -z 4
n -t 0.0 -s 26 -S UP -v circle -c blue -x 12.5 -y 0.0 -z 4
n -t 0.0 -s 6 -S UP -v circle -c red -x 2.5 -y 0.0 -z 4
n -t 0.0 -s 13 -S UP -v circle -c blue -x 6.0 -y 0.0 -z 4
n -t 0.0 -s 27 -S UP -v circle -c blue -x 13.0 -y 0.0 -z 4
n -t 0.0 -s 28 -S UP -v circle -c blue -x 13.5 -y 0.0 -z 4
n -t 0.0 -s 14 -S UP -v circle -c blue -x 6.5 -y 0.0 -z 4
n -t 0.0 -s 29 -S UP -v circle -c blue -x 14.0 -y 0.0 -z 4
n -t 0.0 -s 30 -S UP -v circle -c blue -x 14.5 -y 0.0 -z 4
n -t 0.40390417 -s 21 -S UP -v circle -c blue -x 9.421308 -y 0.7858864 -z 4
n -t 0.5626082 -s 31 -S UP -v circle -c blue -x 11.862528 -y 5.171896 -z 4
n -t 0.74716836 -s 38 -S UP -v circle -c blue -x 29.836948 -y 3.668512 -z 4
n -t 0.8772573 -s 45 -S UP -v circle -c blue -x 17.274685 -y 14.266191 -z 4
n -t 1.4267516 -s 44 -S UP -v circle -c blue -x 2.2071502 -y 11.445252 -z 4
n -t 1.5563664 -s 20 -S UP -v circle -c blue -x 8.334066 -y 16.375359 -z 4
n -t 1.692973 -s 28 -S UP -v circle -c blue -x 6.1016355 -y 9.278216 -z 4
n -t 2.1534746 -s 28 -S UP -v circle -c blue -x 11.672407 -y 6.0419116 -z 4
n -t 2.3160262 -s 17 -S UP -v circle -c blue -x 23.458317 -y 21.740267 -z 4
n -t 2.6748207 -s 12 -S UP -v circle -c blue -x 22.721859 -y 7.1157465 -z 4
n -t 2.87499 -s 37 -S UP -v circle -c blue -x 29.777906 -y 25.550869 -z 4
n -t 3.2463422 -s 45 -S UP -v circle -c blue -x 23.675774 -y 12.299163 -z 4
n -t 3.345582 -s 22 -S UP -v circle -c blue -x 33.611603 -y 34.240765 -z 4
n -t 3.3807442 -s 44 -S UP -v circle -c blue -x 11.452604 -y 23.627096 -z 4
n -t 3.3810537 -s 33 -S UP -v circle -c blue -x 18.686995 -y 50.151157 -z 4
n -t 3.6795235 -s 11 -S UP -v circle -c blue -x 53.806465 -y 28.626303 -z 4
n -t 3.8210285 -s 41 -S UP -v circle -c blue -x 31.026037 -y 22.48998 -z 4
n -t 4.07824 -s 24 -S UP -v circle -c blue -x 65.40645 -y 8.424219 -z 4
n -t 5.3027515 -s 33 -S UP -v circle -c blue -x 36.106155 -y 49.00736 -z 4
n -t 5.3460345 -s 11 -S UP -v circle -c blue -x 68.047134 -y 54.323013 -z 4
n -t 5.6897516 -s 44 -S UP -v circle -c blue -x 9.773337 -y 9.573305 -z 4
n -t 5.888054 -s 47 -S UP -v circle -c blue -x 31.19879 -y 22.490396 -z 4
n -t 6.1165404 -s 45 -S UP -v circle -c blue -x 4.2689934 -y 34.335613 -z 4
n -t 6.118413 -s 48 -S UP -v circle -c blue -x 54.73705 -y 27.05273 -z 4
n -t 6.231507 -s 14 -S UP -v circle -c blue -x 21.455332 -y 48.00895 -z 4
n -t 7.026487 -s 41 -S UP -v circle -c blue -x 25.830282 -y 23.135225 -z 4
n -t 7.966447 -s 17 -S UP -v circle -c blue -x 34.80486 -y 55.621555 -z 4
n -t 8.214138 -s 40 -S UP -v circle -c blue -x 6.211719 -y 51.674583 -z 4
n -t 8.423129 -s 44 -S UP -v circle -c blue -x 11.248318 -y 9.030341 -z 4
n -t 8.859094 -s 23 -S UP -v circle -c blue -x 15.469793 -y 16.256907 -z 4
n -t 9.058368 -s 44 -S UP -v circle -c blue -x 8.085982 -y 8.181506 -z 4
n -t 9.152945 -s 23 -S UP -v circle -c blue -x 18.533632 -y 15.142303 -z 4
n -t 9.258163 -s 17 -S UP -v circle -c blue -x 39.55635 -y 62.44615 -z 4
n -t 9.545227 -s 47 -S UP -v circle -c blue -x 19.386799 -y 21.55806 -z 4
n -t 9.61027 -s 41 -S UP -v circle -c blue -x 28.510252 -y 54.333828 -z 4
n -t 9.633285 -s 18 -S UP -v circle -c blue -x 1.4593164 -y 57.19154 -z 4
n -t 9.715975 -s 41 -S UP -v circle -c blue -x 27.523813 -y 52.505463 -z 4
n -t 9.922368 -s 12 -S UP -v circle -c blue -x 26.5602 -y 14.852488 -z 4
n -t 10.357406 -s 20 -S UP -v circle -c blue -x 25.856472 -y 59.05408 -z 4
n -t 10.601828 -s 22 -S UP -v circle -c blue -x 31.43624 -y 24.240309 -z 4
n -t 10.8816185 -s 43 -S UP -v circle -c blue -x 43.58866 -y 24.356844 -z 4
n -t 11.843021 -s 24 -S UP -v circle -c blue -x 20.936699 -y 7.971401 -z 4
n -t 12.032701 -s 35 -S UP -v circle -c blue -x 22.493828 -y 63.761784 -z 4
n -t 12.842763 -s 27 -S UP -v circle -c blue -x 47.606842 -y 58.07573 -z 4
n -t 13.197452 -s 28 -S UP -v circle -c blue -x 7.325845 -y 17.762205 -z 4
n -t 13.91862 -s 27 -S UP -v circle -c blue -x 51.83917 -y 64.63073 -z 4
n -t 14.008771 -s 30 -S UP -v circle -c blue -x 18.294598 -y 22.588423 -z 4
n -t 14.45465 -s 25 -S UP -v circle -c blue -x 64.4113 -y 68.67118 -z 4
n -t 14.539768 -s 11 -S UP -v circle -c blue -x 36.2017 -y 28.150457 -z 4
n -t 14.722127 -s 12 -S UP -v circle -c blue -x 16.765467 -y 37.083134 -z 4
n -t 15.688119 -s 17 -S UP -v circle -c blue -x 30.535877 -y 67.4817 -z 4
n -t 16.056732 -s 36 -S UP -v circle -c blue -x 48.33273 -y 8.501237 -z 4
n -t 16.502735 -s 44 -S UP -v circle -c blue -x 27.708593 -y 50.292664 -z 4
n -t 17.368944 -s 36 -S UP -v circle -c blue -x 31.051468 -y 23.965763 -z 4
n -t 17.534056 -s 13 -S UP -v circle -c blue -x 13.5106735 -y 11.931609 -z 4
n -t 18.110832 -s 50 -S UP -v circle -c blue -x 25.688929 -y 0.25217688 -z 4
n -t 18.122787 -s 35 -S UP -v circle -c blue -x 30.01113 -y 15.473047 -z 4
n -t 18.173876 -s 12 -S UP -v circle -c blue -x 31.58168 -y 2.3120885 -z 4
n -t 18.38969 -s 28 -S UP -v circle -c blue -x 19.362019 -y 63.02191 -z 4
n -t 18.73608 -s 24 -S UP -v circle -c blue -x 47.409798 -y 60.542816 -z 4
n -t 18.931877 -s 11 -S UP -v circle -c blue -x 52.948353 -y 65.59645 -z 4
n -t 19.464167 -s 39 -S UP -v circle -c blue -x 62.74252 -y 19.72975 -z 4
n -t 19.60288 -s 18 -S UP -v circle -c blue -x 31.676304 -y 13.397987 -z 4
n -t 20.154259 -s 47 -S UP -v circle -c blue -x 53.40752 -y 42.79048 -z 4
n -t 20.437809 -s 26 -S UP -v circle -c blue -x 28.3553 -y 64.36739 -z 4
n -t 20.597351 -s 47 -S UP -v circle -c blue -x 56.40017 -y 46.291885 -z 4
n -t 20.809935 -s 41 -S UP -v circle -c blue -x 53.92975 -y 66.10722 -z 4
n -t 20.848269 -s 16 -S UP -v circle -c blue -x 40.34192 -y 30.990536 -z 4
n -t 21.073484 -s 28 -S UP -v circle -c blue -x 2.05729 -y 29.054453 -z 4
n -t 21.443535 -s 48 -S UP -v circle -c blue -x 44.502056 -y 16.160168 -z 4
n -t 22.045732 -s 23 -S UP -v circle -c blue -x 1.7963799 -y 30.854523 -z 4
n -t 22.289305 -s 11 -S UP -v circle -c blue -x 19.05246 -y 42.24374 -z 4
n -t 22.393444 -s 36 -S UP -v circle -c blue -x 2.2489562 -y 17.955212 -z 4
n -t 22.556917 -s 50 -S UP -v circle -c blue -x 68.97364 -y 7.1163836 -z 4
n -t 22.624651 -s 34 -S UP -v circle -c blue -x 68.64128 -y 50.046707 -z 4
n -t 22.779488 -s 29 -S UP -v circle -c blue -x 10.296041 -y 65.847115 -z 4
n -t 22.818167 -s 34 -S UP -v circle -c blue -x 68.44512 -y 53.535305 -z 4
n -t 23.332117 -s 44 -S UP -v circle -c blue -x 54.38569 -y 49.167084 -z 4
n -t 23.815725 -s 18 -S UP -v circle -c blue -x 19.958008 -y 40.24725 -z 4
n -t 25.37331 -s 44 -S UP -v circle -c blue -x 55.906406 -y 36.627956 -z 4
n -t 25.777086 -s 20 -S UP -v circle -c blue -x 47.388084 -y 2.5334268 -z 4
n -t 26.01946 -s 20 -S UP -v circle -c blue -x 43.72272 -y 3.0903497 -z 4
n -t 26.03634 -s 36 -S UP -v circle -c blue -x 18.646095 -y 23.517345 -z 4
n -t 26.332968 -s 24 -S UP -v circle -c blue -x 9.310877 -y 52.00183 -z 4
n -t 26.611475 -s 39 -S UP -v circle -c blue -x 53.73413 -y 68.696594 -z 4
n -t 26.685999 -s 50 -S UP -v circle -c blue -x 50.744625 -y 67.409706 -z 4
n -t 26.791988 -s 12 -S UP -v circle -c blue -x 6.390487 -y 4.569683 -z 4
n -t 27.046616 -s 13 -S UP -v circle -c blue -x 44.57536 -y 69.77676 -z 4
n -t 28.19712 -s 44 -S UP -v circle -c blue -x 17.309078 -y 12.584559 -z 4
n -t 28.312868 -s 32 -S UP -v circle -c blue -x 66.32082 -y 9.820322 -z 4
n -t 28.372293 -s 25 -S UP -v circle -c blue -x 20.146946 -y 14.205801 -z 4
n -t 28.94671 -s 44 -S UP -v circle -c blue -x 19.038082 -y 15.915178 -z 4
n -t 28.980465 -s 16 -S UP -v circle -c blue -x 26.751347 -y 23.344213 -z 4
n -t 29.887535 -s 48 -S UP -v circle -c blue -x 65.65511 -y 14.517829 -z 4
n -t 30.102577 -s 14 -S UP -v circle -c blue -x 50.882767 -y 69.76634 -z 4
n -t 30.255161 -s 13 -S UP -v circle -c blue -x 36.25758 -y 19.85678 -z 4
n -t 30.44096 -s 30 -S UP -v circle -c blue -x 11.828808 -y 28.903685 -z 4
n -t 30.95224 -s 13 -S UP -v circle -c blue -x 41.382816 -y 17.955395 -z 4
n -t 31.282286 -s 29 -S UP -v circle -c blue -x 47.93897 -y 44.850136 -z 4
n -t 31.38726 -s 45 -S UP -v circle -c blue -x 38.695774 -y 15.066854 -z 4
n -t 32.953457 -s 39 -S UP -v circle -c blue -x 13.6177 -y 50.15955 -z 4
n -t 33.009773 -s 47 -S UP -v circle -c blue -x 47.37953 -y 14.687159 -z 4
n -t 33.026398 -s 39 -S UP -v circle -c blue -x 13.6762 -y 49.68746 -z 4
n -t 33.285324 -s 23 -S UP -v circle -c blue -x 31.178095 -y 33.31181 -z 4
n -t 33.449512 -s 47 -S UP -v circle -c blue -x 49.120384 -y 14.567631 -z 4
n -t 33.828392 -s 41 -S UP -v circle -c blue -x 24.598831 -y 31.708609 -z 4
n -t 34.231007 -s 29 -S UP -v circle -c blue -x 62.833263 -y 0.48073092 -z 4
n -t 34.39384 -s 16 -S UP -v circle -c blue -x 65.85157 -y 18.638586 -z 4
n -t 34.860577 -s 13 -S UP -v circle -c blue -x 57.24964 -y 56.236607 -z 4
n -t 35.150135 -s 40 -S UP -v circle -c blue -x 57.017117 -y 58.821697 -z 4
n -t 35.181797 -s 23 -S UP -v circle -c blue -x 43.1416 -y 12.271974 -z 4
n -t 35.396217 -s 44 -S UP -v circle -c blue -x 25.002937 -y 51.8634 -z 4
n -t 35.46393 -s 30 -S UP -v circle -c blue -x 2.1641903 -y 2.955749 -z 4
n -t 35.51677 -s 41 -S UP -v circle -c blue -x 36.065804 -y 44.283237 -z 4
n -t 36.092438 -s 24 -S UP -v circle -c blue -x 47.226604 -y 20.761478 -z 4
n -t 36.199043 -s 36 -S UP -v circle -c blue -x 40.45616 -y 21.927185 -z 4
n -t 36.262085 -s 30 -S UP -v circle -c blue -x 7.1902 -y 5.422056 -z 4
n -t 36.72574 -s 45 -S UP -v circle -c blue -x 52.346664 -y 30.783632 -z 4
n -t 36.926914 -s 11 -S UP -v circle -c blue -x 23.429142 -y 57.485268 -z 4
n -t 37.032814 -s 39 -S UP -v circle -c blue -x 7.0202374 -y 10.06201 -z 4
n -t 37.462456 -s 40 -S UP -v circle -c blue -x 62.909885 -y 66.63656 -z 4
n -t 37.57359 -s 48 -S UP -v circle -c blue -x 49.054993 -y 27.275063 -z 4
n -t 37.80692 -s 41 -S UP -v circle -c blue -x 32.8302 -y 55.72194 -z 4
n -t 37.9147 -s 40 -S UP -v circle -c blue -x 57.161655 -y 62.16614 -z 4
n -t 37.977604 -s 42 -S UP -v circle -c blue -x 35.36201 -y 54.622868 -z 4
n -t 38.12187 -s 26 -S UP -v circle -c blue -x 44.440166 -y 42.256535 -z 4
n -t 38.290024 -s 36 -S UP -v circle -c blue -x 28.779123 -y 31.630833 -z 4
n -t 38.61804 -s 33 -S UP -v circle -c blue -x 55.786522 -y 64.226326 -z 4
n -t 38.788666 -s 34 -S UP -v circle -c blue -x 65.07013 -y 22.305115 -z 4
n -t 38.886353 -s 15 -S UP -v circle -c blue -x 9.075215 -y 8.772973 -z 4
n -t 39.35553 -s 21 -S UP -v circle -c blue -x 15.642675 -y 33.128445 -z 4
n -t 39.601665 -s 23 -S UP -v circle -c blue -x 65.9454 -y 61.439075 -z 4
n -t 39.939663 -s 42 -S UP -v circle -c blue -x 36.704567 -y 41.86764 -z 4
n -t 40.218464 -s 45 -S UP -v circle -c blue -x 20.536142 -y 25.613432 -z 4
n -t 40.7277 -s 37 -S UP -v circle -c blue -x 48.707294 -y 10.486935 -z 4
n -t 40.972424 -s 23 -S UP -v circle -c blue -x 65.32949 -y 61.22144 -z 4
n -t 41.68627 -s 23 -S UP -v circle -c blue -x 61.35075 -y 61.094273 -z 4
n -t 41.825333 -s 33 -S UP -v circle -c blue -x 21.458378 -y 17.79654 -z 4
n -t 41.942146 -s 49 -S UP -v circle -c blue -x 19.712418 -y 4.086248 -z 4
n -t 42.126675 -s 20 -S UP -v circle -c blue -x 64.35003 -y 49.536335 -z 4
n -t 42.1385 -s 24 -S UP -v circle -c blue -x 9.517184 -y 9.915573 -z 4
n -t 42.316696 -s 40 -S UP -v circle -c blue -x 35.174908 -y 5.289045 -z 4
n -t 42.46043 -s 40 -S UP -v circle -c blue -x 34.028214 -y 5.0445523 -z 4
n -t 43.38 -s 21 -S UP -v circle -c blue -x 34.421192 -y 58.040543 -z 4
n -t 43.645542 -s 28 -S UP -v circle -c blue -x 56.41351 -y 61.11566 -z 4
n -t 43.858124 -s 23 -S UP -v circle -c blue -x 62.266426 -y 61.488792 -z 4
n -t 44.23888 -s 13 -S UP -v circle -c blue -x 6.310098 -y 37.360527 -z 4
n -t 44.44377 -s 33 -S UP -v circle -c blue -x 9.655407 -y 36.23806 -z 4
n -t 44.5484 -s 29 -S UP -v circle -c blue -x 20.120317 -y 18.780075 -z 4
n -t 45.32339 -s 39 -S UP -v circle -c blue -x 2.4069262 -y 48.353558 -z 4
n -t 45.36971 -s 25 -S UP -v circle -c blue -x 3.1222668 -y 41.574238 -z 4
n -t 45.43717 -s 21 -S UP -v circle -c blue -x 13.878171 -y 69.7105 -z 4
n -t 45.762253 -s 17 -S UP -v circle -c blue -x 24.213898 -y 22.656315 -z 4
n -t 45.82333 -s 45 -S UP -v circle -c blue -x 35.02978 -y 28.766806 -z 4
n -t 46.17021 -s 31 -S UP -v circle -c blue -x 43.845387 -y 14.614269 -z 4
n -t 46.25435 -s 25 -S UP -v circle -c blue -x 10.550943 -y 49.793392 -z 4
n -t 46.48006 -s 48 -S UP -v circle -c blue -x 20.415096 -y 58.660213 -z 4
n -t 48.4916 -s 44 -S UP -v circle -c blue -x 29.395836 -y 46.86383 -z 4
n -t 48.67521 -s 20 -S UP -v circle -c blue -x 23.169847 -y 14.7985325 -z 4
n -t 48.78641 -s 25 -S UP -v circle -c blue -x 34.4048 -y 59.846996 -z 4
n -t 49.790565 -s 25 -S UP -v circle -c blue -x 18.98149 -y 63.855186 -z 4
n -t 49.909237 -s 45 -S UP -v circle -c blue -x 19.39397 -y 3.92062 -z 4
n -t 49.927094 -s 24 -S UP -v circle -c blue -x 17.510317 -y 63.84354 -z 4
n -t 50.176033 -s 25 -S UP -v circle -c blue -x 18.907152 -y 64.17477 -z 4
n -t 50.904224 -s 21 -S UP -v circle -c blue -x 52.15104 -y 15.555032 -z 4
n -t 52.191402 -s 39 -S UP -v circle -c blue -x 39.556736 -y 46.92516 -z 4
n -t 52.483006 -s 30 -S UP -v circle -c blue -x 22.887548 -y 48.824726 -z 4
n -t 53.046112 -s 20 -S UP -v circle -c blue -x 3.6765435 -y 36.313366 -z 4
n -t 54.012398 -s 16 -S UP -v circle -c blue -x 8.260074 -y 35.21432 -z 4
n -t 54.19848 -s 17 -S UP -v circle -c blue -x 8.714525 -y 57.07336 -z 4
n -t 54.286156 -s 13 -S UP -v circle -c blue -x 10.101411 -y 30.280237 -z 4
n -t 54.291687 -s 35 -S UP -v circle -c blue -x 0.43700504 -y 13.258961 -z 4
n -t 55.186108 -s 20 -S UP -v circle -c blue -x 17.374798 -y 4.149419 -z 4
n -t 55.658897 -s 50 -S UP -v circle -c blue -x 7.955006 -y 53.788128 -z 4
n -t 55.87185 -s 19 -S UP -v circle -c blue -x 39.49572 -y 35.23235 -z 4
n -t 56.49796 -s 47 -S UP -v circle -c blue -x 17.917477 -y 28.027689 -z 4
n -t 57.032986 -s 48 -S UP -v circle -c blue -x 2.9278746 -y 45.008904 -z 4
n -t 57.19389 -s 49 -S UP -v circle -c blue -x 23.104992 -y 41.880817 -z 4
n -t 57.213604 -s 21 -S UP -v circle -c blue -x 10.55263 -y 49.57023 -z 4
n -t 57.66176 -s 25 -S UP -v circle -c blue -x 35.942318 -y 53.45693 -z 4
n -t 57.742996 -s 37 -S UP -v circle -c blue -x 36.769707 -y 29.68423 -z 4
n -t 58.061428 -s 44 -S UP -v circle -c blue -x 16.694574 -y 50.55617 -z 4
n -t 58.27664 -s 44 -S UP -v circle -c blue -x 14.553081 -y 53.454853 -z 4
n -t 59.339283 -s 39 -S UP -v circle -c blue -x 24.291636 -y 5.0647635 -z 4
n -t 59.940807 -s 48 -S UP -v circle -c blue -x 31.866558 -y 62.082504 -z 4
n -t 60.105278 -s 47 -S UP -v circle -c blue -x 40.025784 -y 25.843672 -z 4
n -t 60.129322 -s 48 -S UP -v circle -c blue -x 32.6001 -y 63.709183 -z 4
n -t 60.75529 -s 17 -S UP -v circle -c blue -x 10.981323 -y 40.978962 -z 4
n -t 60.91619 -s 44 -S UP -v circle -c blue -x 13.923591 -y 56.01836 -z 4
n -t 61.25277 -s 11 -S UP -v circle -c blue -x 45.39419 -y 26.45909 -z 4
n -t 61.30715 -s 50 -S UP -v circle -c blue -x 0.48355237 -y 12.215103 -z 4
n -t 61.70716 -s 19 -S UP -v circle -c blue -x 20.858109 -y 58.266495 -z 4
n -t 61.909412 -s 15 -S UP -v circle -c blue -x 33.48284 -y 1.8876863 -z 4
n -t 62.358364 -s 48 -S UP -v circle -c blue -x 19.048685 -y 39.679893 -z 4
n -t 62.50413 -s 37 -S UP -v circle -c blue -x 17.366333 -y 49.021816 -z 4
n -t 62.765903 -s 37 -S UP -v circle -c blue -x 16.001911 -y 53.099533 -z 4
n -t 62.942963 -s 34 -S UP -v circle -c blue -x 16.419771 -y 3.3463955 -z 4
n -t 63.45748 -s 21 -S UP -v circle -c blue -x 61.542294 -y 18.739952 -z 4
n -t 63.476944 -s 49 -S UP -v circle -c blue -x 55.893223 -y 48.779346 -z 4
n -t 64.0439 -s 16 -S UP -v circle -c blue -x 18.064342 -y 2.583989 -z 4
n -t 64.52729 -s 28 -S UP -v circle -c blue -x 33.13841 -y 24.336733 -z 4
n -t 64.7089 -s 21 -S UP -v circle -c blue -x 61.348976 -y 15.86332 -z 4
n -t 64.984344 -s 13 -S UP -v circle -c blue -x 32.27365 -y 30.342833 -z 4
n -t 66.66802 -s 11 -S UP -v circle -c blue -x 29.883009 -y 25.040007 -z 4
n -t 66.9811 -s 49 -S UP -v circle -c blue -x 41.17123 -y 4.458011 -z 4
n -t 67.00591 -s 47 -S UP -v circle -c blue -x 1.3948195 -y 45.233387 -z 4
n -t 67.16388 -s 21 -S UP -v circle -c blue -x 47.76231 -y 29.315393 -z 4
n -t 68.23288 -s 47 -S UP -v circle -c blue -x 17.60791 -y 37.47788 -z 4
n -t 68.33655 -s 49 -S UP -v circle -c blue -x 53.051388 -y 5.1832104 -z 4
n -t 68.48855 -s 37 -S UP -v circle -c blue -x 53.18118 -y 67.18473 -z 4
n -t 68.89312 -s 18 -S UP -v circle -c blue -x 4.4783287 -y 47.309948 -z 4
n -t 69.169914 -s 15 -S UP -v circle -c blue -x 33.298847 -y 15.510044 -z 4
n -t 69.234436 -s 11 -S UP -v circle -c blue -x 16.525387 -y 1.1214881 -z 4
n -t 69.447945 -s 13 -S UP -v circle -c blue -x 10.209648 -y 61.30354 -z 4
n -t 69.86183 -s 16 -S UP -v circle -c blue -x 8.842868 -y 30.249607 -z 4
n -t 70.00974 -s 20 -S UP -v circle -c blue -x 10.124799 -y 66.34838 -z 4
n -t 70.1376 -s 48 -S UP -v circle -c blue -x 59.90241 -y 60.215496 -z 4
n -t 70.52421 -s 49 -S UP -v circle -c blue -x 49.077072 -y 15.131819 -z 4
n -t 70.62114 -s 48 -S UP -v circle -c blue -x 66.31265 -y 62.669544 -z 4
n -t 72.78373 -s 19 -S UP -v circle -c blue -x 13.537543 -y 67.67643 -z 4
n -t 72.865234 -s 12 -S UP -v circle -c blue -x 2.3798103 -y 57.66667 -z 4
n -t 72.86678 -s 11 -S UP -v circle -c blue -x 41.43005 -y 0.82184017 -z 4
n -t 73.78063 -s 26 -S UP -v circle -c blue -x 22.384964 -y 59.007404 -z 4
n -t 75.10571 -s 26 -S UP -v circle -c blue -x 40.927322 -y 62.683937 -z 4
n -t 75.2266 -s 35 -S UP -v circle -c blue -x 44.9201 -y 61.5358 -z 4
n -t 75.287025 -s 35 -S UP -v circle -c blue -x 44.093254 -y 62.0897 -z 4
n -t 75.37786 -s 20 -S UP -v circle -c blue -x 52.629395 -y 45.3989 -z 4
n -t 76.60577 -s 17 -S UP -v circle -c blue -x 60.390984 -y 8.415731 -z 4
n -t 76.87884 -s 17 -S UP -v circle -c blue -x 61.056137 -y 6.1949854 -z 4
n -t 77.14877 -s 49 -S UP -v circle -c blue -x 22.118656 -y 50.412365 -z 4
n -t 77.65406 -s 37 -S UP -v circle -c blue -x 31.278982 -y 59.102875 -z 4
n -t 78.48773 -s 17 -S UP -v circle -c blue -x 64.30787 -y 20.860003 -z 4
n -t 79.09016 -s 21 -S UP -v circle -c blue -x 17.060184 -y 65.923294 -z 4
n -t 79.61173 -s 44 -S UP -v circle -c blue -x 65.047 -y 51.014435 -z 4
n -t 79.64607 -s 25 -S UP -v circle -c blue -x 2.0192072 -y 4.133786 -z 4
n -t 79.655464 -s 16 -S UP -v circle -c blue -x 24.47815 -y 60.274384 -z 4
n -t 79.96508 -s 20 -S UP -v circle -c blue -x 55.479736 -y 59.68354 -z 4
n -t 79.99986 -s 13 -S UP -v circle -c blue -x 15.106063 -y 40.09545 -z 4
n -t 80.73599 -s 20 -S UP -v circle -c blue -x 49.60954 -y 61.013283 -z 4
n -t 80.89943 -s 40 -S UP -v circle -c blue -x 28.950836 -y 48.578728 -z 4
n -t 81.21174 -s 19 -S UP -v circle -c blue -x 13.664079 -y 52.172184 -z 4
n -t 81.42182 -s 44 -S UP -v circle -c blue -x 45.760235 -y 57.91302 -z 4
n -t 81.65044 -s 20 -S UP -v circle -c blue -x 37.784157 -y 67.54484 -z 4
n -t 81.842476 -s 25 -S UP -v circle -c blue -x 8.836894 -y 7.113401 -z 4
n -t 81.979164 -s 13 -S UP -v circle -c blue -x 23.121208 -y 6.586144 -z 4
n -t 82.30345 -s 31 -S UP -v circle -c blue -x 56.521397 -y 2.1894524 -z 4
n -t 82.553505 -s 17 -S UP -v circle -c blue -x 69.866684 -y 21.047094 -z 4
n -t 82.80959 -s 34 -S UP -v circle -c blue -x 15.963655 -y 61.712513 -z 4
n -t 82.97088 -s 14 -S UP -v circle -c blue -x 30.161314 -y 37.461636 -z 4
n -t 83.10977 -s 24 -S UP -v circle -c blue -x 69.476 -y 11.541709 -z 4
n -t 83.60729 -s 44 -S UP -v circle -c blue -x 28.493313 -y 25.999512 -z 4
n -t 84.09967 -s 34 -S UP -v circle -c blue -x 23.462364 -y 64.69931 -z 4
n -t 84.67195 -s 35 -S UP -v circle -c blue -x 20.799078 -y 31.41879 -z 4
n -t 84.67454 -s 13 -S UP -v circle -c blue -x 29.073597 -y 32.08358 -z 4
n -t 84.79274 -s 34 -S UP -v circle -c blue -x 16.197107 -y 54.61131 -z 4
n -t 85.36728 -s 18 -S UP -v circle -c blue -x 53.135307 -y 17.188938 -z 4
n -t 85.50837 -s 18 -S UP -v circle -c blue -x 53.836212 -y 16.351551 -z 4
n -t 85.574486 -s 13 -S UP -v circle -c blue -x 32.344734 -y 15.739738 -z 4
n -t 85.663605 -s 25 -S UP -v circle -c blue -x 19.741488 -y 42.97301 -z 4
n -t 85.827995 -s 45 -S UP -v circle -c blue -x 35.17463 -y 27.149199 -z 4
n -t 85.86712 -s 50 -S UP -v circle -c blue -x 14.759695 -y 9.747425 -z 4
n -t 86.7213 -s 31 -S UP -v circle -c blue -x 8.354877 -y 40.930405 -z 4
n -t 87.71148 -s 37 -S UP -v circle -c blue -x 10.777366 -y 13.573994 -z 4
n -t 87.82658 -s 11 -S UP -v circle -c blue -x 23.75035 -y 5.0032268 -z 4
n -t 88.00653 -s 18 -S UP -v circle -c blue -x 51.908585 -y 2.9338353 -z 4
n -t 88.019424 -s 14 -S UP -v circle -c blue -x 68.40544 -y 6.322912 -z 4
n -t 88.57874 -s 49 -S UP -v circle -c blue -x 32.26054 -y 42.730488 -z 4
n -t 89.15754 -s 39 -S UP -v circle -c blue -x 4.9933434 -y 33.517902 -z 4
n -t 89.25424 -s 14 -S UP -v circle -c blue -x 67.54445 -y 7.547611 -z 4
n -t 89.41181 -s 35 -S UP -v circle -c blue -x 13.476367 -y 44.871086 -z 4
n -t 89.63273 -s 31 -S UP -v circle -c blue -x 31.667845 -y 50.505787 -z 4
n -t 89.85009 -s 50 -S UP -v circle -c blue -x 14.853546 -y 34.721367 -z 4
n -t 90.5024 -s 33 -S UP -v circle -c blue -x 18.345886 -y 19.017721 -z 4
n -t 91.22748 -s 19 -S UP -v circle -c blue -x 26.035112 -y 54.268173 -z 4
n -t 91.41144 -s 17 -S UP -v circle -c blue -x 5.197018 -y 61.026188 -z 4
n -t 92.23295 -s 28 -S UP -v circle -c blue -x 69.652084 -y 51.66087 -z 4
n -t 92.4994 -s 39 -S UP -v circle -c blue -x 24.871857 -y 23.944248 -z 4
n -t 92.60134 -s 12 -S UP -v circle -c blue -x 4.95034 -y 62.5612 -z 4
n -t 92.84499 -s 14 -S UP -v circle -c blue -x 61.292343 -y 42.089993 -z 4
n -t 93.2877 -s 46 -S UP -v circle -c blue -x 35.10895 -y 31.32437 -z 4
n -t 93.303444 -s 49 -S UP -v circle -c blue -x 2.0060296 -y 2.698202 -z 4
n -t 93.36019 -s 19 -S UP -v circle -c blue -x 10.100775 -y 45.307667 -z 4
n -t 93.96085 -s 32 -S UP -v circle -c blue -x 64.74922 -y 30.790325 -z 4
n -t 94.21994 -s 48 -S UP -v circle -c blue -x 51.305904 -y 33.47584 -z 4
n -t 94.362274 -s 25 -S UP -v circle -c blue -x 33.34085 -y 66.662735 -z 4
n -t 94.57526 -s 37 -S UP -v circle -c blue -x 38.74759 -y 35.152977 -z 4
n -t 94.64317 -s 46 -S UP -v circle -c blue -x 38.744698 -y 42.878914 -z 4
n -t 96.7373 -s 47 -S UP -v circle -c blue -x 35.275703 -y 62.18848 -z 4
n -t 97.71311 -s 31 -S UP -v circle -c blue -x 53.91087 -y 56.947952 -z 4
n -t 98.16114 -s 24 -S UP -v circle -c blue -x 40.865597 -y 60.80186 -z 4
n -t 98.53767 -s 16 -S UP -v circle -c blue -x 32.135315 -y 63.857132 -z 4
n -t 98.547264 -s 26 -S UP -v circle -c blue -x 62.82722 -y 22.568691 -z 4
n -t 98.80716 -s 24 -S UP -v circle -c blue -x 44.871094 -y 66.14097 -z 4
n -t 99.25138 -s 37 -S UP -v circle -c blue -x 50.74868 -y 0.63913304 -z 4
n -t 99.28747 -s 49 -S UP -v circle -c blue -x 69.19785 -y 11.297479 -z 4
n -t 99.49005 -s 11 -S UP -v circle -c blue -x 37.949543 -y 33.021206 -z 4
n -t 99.50192 -s 48 -S UP -v circle -c blue -x 69.5909 -y 25.03402 -z 4
n -t 99.61143 -s 26 -S UP -v circle -c blue -x 58.274437 -y 28.025925 -z 4
n -t 100.00429 -s 19 -S UP -v circle -c blue -x 5.1881595 -y 59.08935 -z 4
n -t 100.36553 -s 48 -S UP -v circle -c blue -x 59.397537 -y 20.33609 -z 4
n -t 101.229706 -s 16 -S UP -v circle -c blue -x 7.6781545 -y 46.033142 -z 4
n -t 101.238235 -s 48 -S UP -v circle -c blue -x 54.035007 -y 15.983218 -z 4
n -t 101.48864 -s 35 -S UP -v circle -c blue -x 0.44972852 -y 13.692678 -z 4
n -t 101.681725 -s 46 -S UP -v circle -c blue -x 3.4221785 -y 46.76264 -z 4
n -t 102.29936 -s 47 -S UP -v circle -c blue -x 46.10459 -y 19.243504 -z 4
n -t 102.51357 -s 49 -S UP -v circle -c blue -x 28.764898 -y 26.725983 -z 4
n -t 102.91153 -s 21 -S UP -v circle -c blue -x 12.888371 -y 61.368298 -z 4
n -t 102.95156 -s 14 -S UP -v circle -c blue -x 53.17475 -y 10.429781 -z 4
n -t 103.12579 -s 24 -S UP -v circle -c blue -x 60.69371 -y 23.733501 -z 4
n -t 103.21267 -s 35 -S UP -v circle -c blue -x 22.118793 -y 9.926106 -z 4
n -t 103.60328 -s 19 -S UP -v circle -c blue -x 28.974966 -y 8.623758 -z 4
n -t 103.66381 -s 37 -S UP -v circle -c blue -x 62.69285 -y 15.047574 -z 4
n -t 103.671425 -s 46 -S UP -v circle -c blue -x 34.986614 -y 49.3698 -z 4
n -t 104.039734 -s 19 -S UP -v circle -c blue -x 36.437195 -y 11.890866 -z 4
n -t 104.61074 -s 13 -S UP -v circle -c blue -x 10.26088 -y 40.26511 -z 4
n -t 104.72543 -s 15 -S UP -v circle -c blue -x 69.49759 -y 7.535963 -z 4
n -t 105.56102 -s 16 -S UP -v circle -c blue -x 65.810234 -y 4.89634 -z 4
n -t 105.82658 -s 21 -S UP -v circle -c blue -x 10.053684 -y 68.76764 -z 4
n -t 106.5916 -s 16 -S UP -v circle -c blue -x 56.285583 -y 5.4621096 -z 4
n -t 106.61509 -s 31 -S UP -v circle -c blue -x 25.991158 -y 54.284245 -z 4
n -t 106.739105 -s 46 -S UP -v circle -c blue -x 57.22477 -y 47.872005 -z 4