# Trace file generated by Jist/Swans Version 1.0.6. at Fri Jul 26 18:33:36 BRT 2013
V -t * -v 1.0a5 -a 0
W -t * -x 410 -y 410
A -t * -n 1 -p 0 -o 0xffffffff -c 31 -a 1
A -t * -h 1 -m 2147483647 -s 0
n -t 0.0 -s 1 -S UP -v circle -c red -x 209.05473 -y 294.66766 -z 4
n -t 0.0 -s 2 -S UP -v circle -c red -x 495.90933 -y 164.73926 -z 4
n -t 0.0 -s 3 -S UP -v circle -c red -x 172.99443 -y 95.57819 -z 4
n -t 0.0 -s 4 -S UP -v circle -c red -x 162.64009 -y 262.85568 -z 4
n -t 0.0 -s 5 -S UP -v circle -c red -x 7.832617 -y 114.683655 -z 4
n -t 0.0 -s 6 -S UP -v circle -c red -x 125.49159 -y 118.47976 -z 4
n -t 0.0 -s 7 -S UP -v circle -c red -x 306.73917 -y 313.22766 -z 4
n -t 0.0 -s 8 -S UP -v circle -c red -x 334.2428 -y 90.52122 -z 4
n -t 0.0 -s 9 -S UP -v circle -c blue -x 479.4784 -y 310.70578 -z 4
n -t 0.0 -s 10 -S UP -v circle -c blue -x 93.431114 -y 0.14695525 -z 4
n -t 0.0 -s 11 -S UP -v circle -c blue -x 230.60617 -y 112.60641 -z 4
n -t 0.0 -s 12 -S UP -v circle -c blue -x 25.59498 -y 80.45203 -z 4
n -t 0.0 -s 13 -S UP -v circle -c blue -x 320.1507 -y 28.764933 -z 4
n -t 0.0 -s 14 -S UP -v circle -c blue -x 478.7152 -y 474.29718 -z 4
n -t 0.0 -s 15 -S UP -v circle -c blue -x 295.05658 -y 483.5704 -z 4
n -t 0.0 -s 16 -S UP -v circle -c blue -x 358.48245 -y 42.297928 -z 4
n -t 0.0 -s 17 -S UP -v circle -c blue -x 236.91264 -y 189.55072 -z 4
n -t 0.0 -s 18 -S UP -v circle -c blue -x 197.36462 -y 42.33673 -z 4
n -t 0.0 -s 19 -S UP -v circle -c blue -x 427.83853 -y 220.31187 -z 4
n -t 0.0 -s 20 -S UP -v circle -c blue -x 47.490208 -y 169.74437 -z 4
n -t 0.0 -s 21 -S UP -v circle -c blue -x 24.397284 -y 372.0395 -z 4
n -t 0.0 -s 22 -S UP -v circle -c blue -x 175.46237 -y 41.056187 -z 4
n -t 0.0 -s 23 -S UP -v circle -c blue -x 142.48044 -y 81.61324 -z 4
n -t 0.0 -s 24 -S UP -v circle -c blue -x 490.1785 -y 306.27884 -z 4
n -t 0.0 -s 25 -S UP -v circle -c blue -x 73.682396 -y 177.82974 -z 4
n -t 0.0 -s 26 -S UP -v circle -c blue -x 493.78665 -y 456.87518 -z 4
n -t 0.0 -s 27 -S UP -v circle -c blue -x 266.06476 -y 476.47845 -z 4
n -t 0.0 -s 28 -S UP -v circle -c blue -x 178.73877 -y 385.85214 -z 4
n -t 0.0 -s 29 -S UP -v circle -c blue -x 135.68619 -y 403.4405 -z 4
n -t 0.0 -s 30 -S UP -v circle -c blue -x 216.6179 -y 358.76105 -z 4
n -t 0.0 -s 31 -S UP -v circle -c blue -x 117.04123 -y 398.1495 -z 4
n -t 0.0 -s 32 -S UP -v circle -c blue -x 286.56967 -y 81.1342 -z 4
n -t 0.0 -s 33 -S UP -v circle -c blue -x 83.75856 -y 135.42566 -z 4
n -t 0.0 -s 34 -S UP -v circle -c blue -x 160.74681 -y 239.60101 -z 4
n -t 0.0 -s 35 -S UP -v circle -c blue -x 59.638916 -y 421.80023 -z 4
n -t 0.0 -s 36 -S UP -v circle -c blue -x 412.60623 -y 46.067505 -z 4
n -t 0.0 -s 37 -S UP -v circle -c blue -x 14.380991 -y 405.12958 -z 4
n -t 0.0 -s 38 -S UP -v circle -c blue -x 201.04312 -y 401.99875 -z 4
n -t 0.0 -s 39 -S UP -v circle -c blue -x 479.1124 -y 157.8598 -z 4
n -t 0.0 -s 40 -S UP -v circle -c blue -x 142.50592 -y 102.80109 -z 4
n -t 0.0 -s 41 -S UP -v circle -c blue -x 291.0011 -y 296.25708 -z 4
n -t 0.0 -s 42 -S UP -v circle -c blue -x 346.1512 -y 230.03319 -z 4
n -t 0.0 -s 43 -S UP -v circle -c blue -x 261.6078 -y 113.95389 -z 4
n -t 0.0 -s 44 -S UP -v circle -c blue -x 308.93964 -y 295.84082 -z 4
n -t 0.0 -s 45 -S UP -v circle -c blue -x 74.0166 -y 389.1541 -z 4
n -t 0.0 -s 46 -S UP -v circle -c blue -x 251.96082 -y 253.45787 -z 4
n -t 0.0 -s 47 -S UP -v circle -c blue -x 323.86102 -y 463.86108 -z 4
n -t 0.0 -s 48 -S UP -v circle -c blue -x 103.25479 -y 418.38187 -z 4
n -t 0.0 -s 49 -S UP -v circle -c blue -x 489.78625 -y 150.79248 -z 4
n -t 0.0 -s 50 -S UP -v circle -c blue -x 71.45816 -y 335.1369 -z 4
n -t 0.0 -s 1 -S UP -v circle -c red -x 209.05473 -y 294.66766 -z 4
n -t 0.0 -s 50 -S UP -v circle -c blue -x 71.45816 -y 335.1369 -z 4
n -t 0.0 -s 3 -S UP -v circle -c red -x 172.99443 -y 95.57819 -z 4
n -t 0.0 -s 7 -S UP -v circle -c red -x 306.73917 -y 313.22766 -z 4
n -t 0.0 -s 49 -S UP -v circle -c blue -x 489.78625 -y 150.79248 -z 4
n -t 0.0 -s 15 -S UP -v circle -c blue -x 295.05658 -y 483.5704 -z 4
n -t 0.0 -s 31 -S UP -v circle -c blue -x 117.04123 -y 398.1495 -z 4
n -t 0.0 -s 32 -S UP -v circle -c blue -x 286.56967 -y 81.1342 -z 4
n -t 0.0 -s 16 -S UP -v circle -c blue -x 358.48245 -y 42.297928 -z 4
n -t 0.0 -s 33 -S UP -v circle -c blue -x 83.75856 -y 135.42566 -z 4
n -t 0.0 -s 34 -S UP -v circle -c blue -x 160.74681 -y 239.60101 -z 4
n -t 0.0 -s 8 -S UP -v circle -c red -x 334.2428 -y 90.52122 -z 4
n -t 0.0 -s 17 -S UP -v circle -c blue -x 236.91264 -y 189.55072 -z 4
n -t 0.0 -s 35 -S UP -v circle -c blue -x 59.638916 -y 421.80023 -z 4
n -t 0.0 -s 36 -S UP -v circle -c blue -x 412.60623 -y 46.067505 -z 4
n -t 0.0 -s 18 -S UP -v circle -c blue -x 197.36462 -y 42.33673 -z 4
n -t 0.0 -s 37 -S UP -v circle -c blue -x 14.380991 -y 405.12958 -z 4
n -t 0.0 -s 38 -S UP -v circle -c blue -x 201.04312 -y 401.99875 -z 4
n -t 0.0 -s 4 -S UP -v circle -c red -x 162.64009 -y 262.85568 -z 4
n -t 0.0 -s 9 -S UP -v circle -c blue -x 479.4784 -y 310.70578 -z 4
n -t 0.0 -s 48 -S UP -v circle -c blue -x 103.25479 -y 418.38187 -z 4
n -t 0.0 -s 19 -S UP -v circle -c blue -x 427.83853 -y 220.31187 -z 4
n -t 0.0 -s 39 -S UP -v circle -c blue -x 479.1124 -y 157.8598 -z 4
n -t 0.0 -s 40 -S UP -v circle -c blue -x 142.50592 -y 102.80109 -z 4
n -t 0.0 -s 20 -S UP -v circle -c blue -x 47.490208 -y 169.74437 -z 4
n -t 0.0 -s 41 -S UP -v circle -c blue -x 291.0011 -y 296.25708 -z 4
n -t 0.0 -s 42 -S UP -v circle -c blue -x 346.1512 -y 230.03319 -z 4
n -t 0.0 -s 10 -S UP -v circle -c blue -x 93.431114 -y 0.14695525 -z 4
n -t 0.0 -s 21 -S UP -v circle -c blue -x 24.397284 -y 372.0395 -z 4
n -t 0.0 -s 43 -S UP -v circle -c blue -x 261.6078 -y 113.95389 -z 4
n -t 0.0 -s 44 -S UP -v circle -c blue -x 308.93964 -y 295.84082 -z 4
n -t 0.0 -s 22 -S UP -v circle -c blue -x 175.46237 -y 41.056187 -z 4
n -t 0.0 -s 45 -S UP -v circle -c blue -x 74.0166 -y 389.1541 -z 4
n -t 0.0 -s 46 -S UP -v circle -c blue -x 251.96082 -y 253.45787 -z 4
n -t 0.0 -s 2 -S UP -v circle -c red -x 495.90933 -y 164.73926 -z 4
n -t 0.0 -s 5 -S UP -v circle -c red -x 7.832617 -y 114.683655 -z 4
n -t 0.0 -s 11 -S UP -v circle -c blue -x 230.60617 -y 112.60641 -z 4
n -t 0.0 -s 23 -S UP -v circle -c blue -x 142.48044 -y 81.61324 -z 4
n -t 0.0 -s 47 -S UP -v circle -c blue -x 323.86102 -y 463.86108 -z 4
n -t 0.0 -s 24 -S UP -v circle -c blue -x 490.1785 -y 306.27884 -z 4
n -t 0.0 -s 12 -S UP -v circle -c blue -x 25.59498 -y 80.45203 -z 4
n -t 0.0 -s 25 -S UP -v circle -c blue -x 73.682396 -y 177.82974 -z 4
n -t 0.0 -s 26 -S UP -v circle -c blue -x 493.78665 -y 456.87518 -z 4
n -t 0.0 -s 6 -S UP -v circle -c red -x 125.49159 -y 118.47976 -z 4
n -t 0.0 -s 13 -S UP -v circle -c blue -x 320.1507 -y 28.764933 -z 4
n -t 0.0 -s 27 -S UP -v circle -c blue -x 266.06476 -y 476.47845 -z 4
n -t 0.0 -s 28 -S UP -v circle -c blue -x 178.73877 -y 385.85214 -z 4
n -t 0.0 -s 14 -S UP -v circle -c blue -x 478.7152 -y 474.29718 -z 4
n -t 0.0 -s 29 -S UP -v circle -c blue -x 135.68619 -y 403.4405 -z 4
n -t 0.0 -s 30 -S UP -v circle -c blue -x 216.6179 -y 358.76105 -z 4
n -t 0.06318737 -s 50 -S UP -v circle -c blue -x 70.47543 -y 334.42178 -z 4
n -t 0.8089931 -s 45 -S UP -v circle -c blue -x 61.6425 -y 380.62567 -z 4
n -t 0.96070063 -s 20 -S UP -v circle -c blue -x 50.177345 -y 183.42754 -z 4
n -t 1.0911679 -s 28 -S UP -v circle -c blue -x 196.47687 -y 398.3289 -z 4
n -t 1.3876826 -s 13 -S UP -v circle -c blue -x 338.5848 -y 42.300545 -z 4
n -t 1.4285847 -s 21 -S UP -v circle -c blue -x 25.360874 -y 372.1944 -z 4
n -t 1.5577444 -s 28 -S UP -v circle -c blue -x 202.7716 -y 399.70126 -z 4
n -t 1.8312707 -s 12 -S UP -v circle -c blue -x 45.341682 -y 101.83367 -z 4
n -t 2.1416893 -s 31 -S UP -v circle -c blue -x 122.94718 -y 396.8411 -z 4
n -t 3.0236022 -s 50 -S UP -v circle -c blue -x 72.64483 -y 380.30286 -z 4
n -t 3.7040186 -s 37 -S UP -v circle -c blue -x 56.030888 -y 439.78302 -z 4
n -t 4.0359044 -s 44 -S UP -v circle -c blue -x 301.42703 -y 316.97772 -z 4
n -t 4.28019 -s 30 -S UP -v circle -c blue -x 237.29474 -y 324.72885 -z 4
n -t 5.4501424 -s 41 -S UP -v circle -c blue -x 272.82538 -y 313.49124 -z 4
n -t 5.828245 -s 41 -S UP -v circle -c blue -x 268.86505 -y 310.06662 -z 4
n -t 5.954261 -s 34 -S UP -v circle -c blue -x 214.60674 -y 290.72107 -z 4
n -t 6.183562 -s 34 -S UP -v circle -c blue -x 217.75858 -y 292.22928 -z 4
n -t 6.3401303 -s 28 -S UP -v circle -c blue -x 193.30182 -y 434.00635 -z 4
n -t 6.9417963 -s 27 -S UP -v circle -c blue -x 182.55164 -y 465.12347 -z 4
n -t 6.945004 -s 29 -S UP -v circle -c blue -x 200.74939 -y 392.6543 -z 4
n -t 7.1058636 -s 14 -S UP -v circle -c blue -x 432.03378 -y 455.60587 -z 4
n -t 7.3999934 -s 26 -S UP -v circle -c blue -x 430.563 -y 441.10474 -z 4
n -t 7.4856243 -s 37 -S UP -v circle -c blue -x 95.928246 -y 390.59772 -z 4
n -t 7.9146767 -s 27 -S UP -v circle -c blue -x 185.72406 -y 472.25204 -z 4
n -t 8.281509 -s 16 -S UP -v circle -c blue -x 474.54645 -y 40.800346 -z 4
n -t 8.376985 -s 31 -S UP -v circle -c blue -x 120.6097 -y 288.43723 -z 4
n -t 8.573443 -s 13 -S UP -v circle -c blue -x 279.31183 -y 70.54572 -z 4
n -t 9.033742 -s 44 -S UP -v circle -c blue -x 327.71802 -y 341.96436 -z 4
n -t 9.046337 -s 23 -S UP -v circle -c blue -x 210.97366 -y 46.622807 -z 4
n -t 9.263226 -s 23 -S UP -v circle -c blue -x 208.24983 -y 44.831116 -z 4
n -t 9.388028 -s 41 -S UP -v circle -c blue -x 261.33707 -y 337.10983 -z 4
n -t 9.4724865 -s 45 -S UP -v circle -c blue -x 34.586258 -y 384.4534 -z 4
n -t 9.551045 -s 31 -S UP -v circle -c blue -x 142.79625 -y 291.80762 -z 4
n -t 9.659817 -s 31 -S UP -v circle -c blue -x 140.89114 -y 292.6362 -z 4
n -t 10.377869 -s 22 -S UP -v circle -c blue -x 134.171 -y 39.79175 -z 4
n -t 10.64623 -s 12 -S UP -v circle -c blue -x 19.187782 -y 237.25366 -z 4
n -t 11.165906 -s 25 -S UP -v circle -c blue -x 31.283678 -y 132.69214 -z 4
n -t 11.629342 -s 13 -S UP -v circle -c blue -x 239.93517 -y 72.05749 -z 4
n -t 12.052943 -s 40 -S UP -v circle -c blue -x 89.27553 -y 125.11433 -z 4
n -t 12.4077425 -s 34 -S UP -v circle -c blue -x 335.80972 -y 286.3345 -z 4
n -t 12.423842 -s 39 -S UP -v circle -c blue -x 499.22113 -y 114.290215 -z 4
n -t 12.868115 -s 30 -S UP -v circle -c blue -x 241.3746 -y 345.09 -z 4
n -t 13.327702 -s 41 -S UP -v circle -c blue -x 233.68484 -y 318.69498 -z 4
n -t 13.473637 -s 27 -S UP -v circle -c blue -x 216.24089 -y 423.23297 -z 4
n -t 13.606207 -s 26 -S UP -v circle -c blue -x 490.00638 -y 395.31287 -z 4
n -t 14.869054 -s 27 -S UP -v circle -c blue -x 198.16785 -y 412.1193 -z 4
n -t 15.596059 -s 13 -S UP -v circle -c blue -x 179.41081 -y 107.76575 -z 4
n -t 16.065012 -s 29 -S UP -v circle -c blue -x 113.29463 -y 470.25928 -z 4
n -t 16.17021 -s 34 -S UP -v circle -c blue -x 321.29523 -y 314.08093 -z 4
n -t 16.340338 -s 34 -S UP -v circle -c blue -x 321.85992 -y 315.52322 -z 4
n -t 17.240705 -s 20 -S UP -v circle -c blue -x 28.075735 -y 181.429 -z 4
n -t 17.298649 -s 12 -S UP -v circle -c blue -x 101.39077 -y 188.64029 -z 4
n -t 17.813906 -s 16 -S UP -v circle -c blue -x 392.19406 -y 30.437246 -z 4
n -t 19.005785 -s 12 -S UP -v circle -c blue -x 88.603714 -y 214.99731 -z 4
n -t 19.449942 -s 33 -S UP -v circle -c blue -x 115.44382 -y 96.45897 -z 4
n -t 19.789808 -s 48 -S UP -v circle -c blue -x 75.69458 -y 304.48157 -z 4
n -t 20.090788 -s 30 -S UP -v circle -c blue -x 264.21057 -y 313.09323 -z 4
n -t 20.414698 -s 44 -S UP -v circle -c blue -x 224.44493 -y 396.0104 -z 4
n -t 20.466326 -s 22 -S UP -v circle -c blue -x 32.699635 -y 63.87739 -z 4
n -t 21.074362 -s 33 -S UP -v circle -c blue -x 113.87105 -y 79.07329 -z 4
n -t 21.75928 -s 44 -S UP -v circle -c blue -x 230.15674 -y 403.9585 -z 4
n -t 22.110786 -s 28 -S UP -v circle -c blue -x 277.89728 -y 469.4629 -z 4
n -t 22.183119 -s 29 -S UP -v circle -c blue -x 172.8879 -y 449.3652 -z 4
n -t 22.536222 -s 20 -S UP -v circle -c blue -x 61.55916 -y 158.85875 -z 4
n -t 22.84812 -s 41 -S UP -v circle -c blue -x 259.7717 -y 277.77243 -z 4
n -t 22.863192 -s 39 -S UP -v circle -c blue -x 494.97504 -y 25.43405 -z 4
n -t 23.970362 -s 33 -S UP -v circle -c blue -x 67.11548 -y 98.44094 -z 4
n -t 24.639536 -s 27 -S UP -v circle -c blue -x 104.417435 -y 492.89978 -z 4
n -t 24.674894 -s 27 -S UP -v circle -c blue -x 104.102684 -y 492.93588 -z 4
n -t 25.43685 -s 21 -S UP -v circle -c blue -x 82.20902 -y 379.78046 -z 4
n -t 25.948248 -s 44 -S UP -v circle -c blue -x 272.61963 -y 338.22412 -z 4
n -t 26.407188 -s 40 -S UP -v circle -c blue -x 237.73494 -y 171.94666 -z 4
n -t 27.074547 -s 48 -S UP -v circle -c blue -x 62.555317 -y 294.32736 -z 4
n -t 27.089668 -s 49 -S UP -v circle -c blue -x 330.8417 -y 54.46358 -z 4
n -t 27.21047 -s 40 -S UP -v circle -c blue -x 236.60779 -y 175.47859 -z 4
n -t 27.732515 -s 27 -S UP -v circle -c blue -x 96.69655 -y 450.17358 -z 4
n -t 27.841002 -s 18 -S UP -v circle -c blue -x 318.68954 -y 78.59839 -z 4
n -t 28.603548 -s 13 -S UP -v circle -c blue -x 214.72163 -y 94.286446 -z 4
n -t 28.779087 -s 42 -S UP -v circle -c blue -x 19.781504 -y 347.70657 -z 4
n -t 28.86631 -s 30 -S UP -v circle -c blue -x 255.22173 -y 321.8032 -z 4
n -t 29.305246 -s 23 -S UP -v circle -c blue -x 157.93135 -y 131.05943 -z 4
n -t 29.874859 -s 28 -S UP -v circle -c blue -x 259.74875 -y 359.98398 -z 4
n -t 30.198727 -s 13 -S UP -v circle -c blue -x 191.15253 -y 79.75381 -z 4
n -t 30.224003 -s 20 -S UP -v circle -c blue -x 61.041008 -y 182.9745 -z 4
n -t 31.04718 -s 12 -S UP -v circle -c blue -x 65.009315 -y 190.7414 -z 4
n -t 31.203999 -s 42 -S UP -v circle -c blue -x 23.688337 -y 359.92276 -z 4
n -t 31.308207 -s 18 -S UP -v circle -c blue -x 331.98157 -y 130.11794 -z 4
n -t 31.517092 -s 48 -S UP -v circle -c blue -x 3.378036 -y 237.2086 -z 4
n -t 32.357098 -s 26 -S UP -v circle -c blue -x 414.69638 -y 496.91592 -z 4
n -t 32.740234 -s 22 -S UP -v circle -c blue -x 10.491065 -y 48.35182 -z 4
n -t 32.745613 -s 12 -S UP -v circle -c blue -x 84.77304 -y 199.5127 -z 4
n -t 32.79991 -s 12 -S UP -v circle -c blue -x 85.05948 -y 199.89249 -z 4
n -t 32.993168 -s 34 -S UP -v circle -c blue -x 357.98438 -y 285.88864 -z 4
n -t 33.815296 -s 12 -S UP -v circle -c blue -x 91.24077 -y 209.08658 -z 4
n -t 34.338867 -s 12 -S UP -v circle -c blue -x 93.42159 -y 202.7987 -z 4
n -t 35.623215 -s 36 -S UP -v circle -c blue -x 433.12402 -y 179.5651 -z 4
n -t 36.272835 -s 37 -S UP -v circle -c blue -x 18.490257 -y 447.0406 -z 4
n -t 36.40565 -s 27 -S UP -v circle -c blue -x 28.37237 -y 481.12372 -z 4
n -t 37.721718 -s 41 -S UP -v circle -c blue -x 131.37195 -y 433.2648 -z 4
n -t 37.908733 -s 26 -S UP -v circle -c blue -x 467.0313 -y 499.0199 -z 4
n -t 38.0498 -s 36 -S UP -v circle -c blue -x 414.23203 -y 193.0145 -z 4
n -t 38.4446 -s 11 -S UP -v circle -c blue -x 206.20107 -y 140.58324 -z 4
n -t 39.111336 -s 28 -S UP -v circle -c blue -x 299.51974 -y 453.46454 -z 4
n -t 39.325706 -s 37 -S UP -v circle -c blue -x 19.143017 -y 417.505 -z 4
n -t 39.91445 -s 45 -S UP -v circle -c blue -x 12.080522 -y 158.559 -z 4
n -t 40.41873 -s 27 -S UP -v circle -c blue -x 2.7656937 -y 474.83572 -z 4
n -t 40.596554 -s 31 -S UP -v circle -c blue -x 195.12567 -y 106.39355 -z 4
n -t 40.705547 -s 37 -S UP -v circle -c blue -x 7.8080835 -y 412.10025 -z 4
n -t 40.826294 -s 21 -S UP -v circle -c blue -x 55.007053 -y 297.97296 -z 4
n -t 40.966644 -s 11 -S UP -v circle -c blue -x 184.2372 -y 118.0621 -z 4
n -t 41.115532 -s 34 -S UP -v circle -c blue -x 494.40936 -y 341.27213 -z 4
n -t 41.193344 -s 36 -S UP -v circle -c blue -x 387.32004 -y 143.49208 -z 4
n -t 41.629295 -s 17 -S UP -v circle -c blue -x 243.10725 -y 163.60413 -z 4
n -t 42.424015 -s 20 -S UP -v circle -c blue -x 34.83899 -y 130.59612 -z 4
n -t 42.568336 -s 13 -S UP -v circle -c blue -x 201.56114 -y 35.48757 -z 4
n -t 42.948917 -s 15 -S UP -v circle -c blue -x 255.62056 -y 181.85506 -z 4
n -t 42.97026 -s 31 -S UP -v circle -c blue -x 190.98921 -y 104.367355 -z 4
n -t 43.35933 -s 13 -S UP -v circle -c blue -x 216.56682 -y 37.799255 -z 4
n -t 44.16844 -s 29 -S UP -v circle -c blue -x 429.25098 -y 493.18842 -z 4
n -t 44.328854 -s 12 -S UP -v circle -c blue -x 75.78577 -y 241.45422 -z 4
n -t 44.879154 -s 20 -S UP -v circle -c blue -x 55.585693 -y 132.07597 -z 4
n -t 44.914295 -s 22 -S UP -v circle -c blue -x 199.41858 -y 137.12674 -z 4
n -t 45.130817 -s 32 -S UP -v circle -c blue -x 206.75423 -y 304.40808 -z 4
n -t 46.564365 -s 18 -S UP -v circle -c blue -x 325.00433 -y 258.37677 -z 4
n -t 47.047546 -s 36 -S UP -v circle -c blue -x 434.95358 -y 101.90618 -z 4
n -t 47.932423 -s 12 -S UP -v circle -c blue -x 23.949047 -y 215.1359 -z 4
n -t 49.50639 -s 46 -S UP -v circle -c blue -x 321.1907 -y 338.1727 -z 4
n -t 49.553722 -s 44 -S UP -v circle -c blue -x 278.08032 -y 107.32925 -z 4
n -t 50.216663 -s 46 -S UP -v circle -c blue -x 330.00674 -y 346.47955 -z 4
n -t 50.85369 -s 44 -S UP -v circle -c blue -x 273.55188 -y 131.10515 -z 4
n -t 51.344482 -s 42 -S UP -v circle -c blue -x 124.85936 -y 226.93724 -z 4
n -t 52.359295 -s 48 -S UP -v circle -c blue -x 195.29526 -y 301.25467 -z 4
n -t 52.86013 -s 48 -S UP -v circle -c blue -x 190.66359 -y 298.35104 -z 4
n -t 53.4452 -s 44 -S UP -v circle -c blue -x 257.84024 -y 98.52753 -z 4
n -t 53.460205 -s 42 -S UP -v circle -c blue -x 123.55954 -y 269.1563 -z 4
n -t 53.55318 -s 45 -S UP -v circle -c blue -x 0.23897773 -y 17.615423 -z 4
n -t 53.672424 -s 48 -S UP -v circle -c blue -x 197.92604 -y 309.51746 -z 4
n -t 53.76168 -s 17 -S UP -v circle -c blue -x 220.98634 -y 246.2407 -z 4
n -t 54.186962 -s 14 -S UP -v circle -c blue -x 422.07755 -y 234.36252 -z 4
n -t 54.811665 -s 45 -S UP -v circle -c blue -x 16.574581 -y 32.136147 -z 4
n -t 54.871025 -s 45 -S UP -v circle -c blue -x 16.086567 -y 31.266691 -z 4
n -t 55.20792 -s 14 -S UP -v circle -c blue -x 420.4389 -y 231.52779 -z 4
n -t 55.41288 -s 46 -S UP -v circle -c blue -x 366.4759 -y 363.5208 -z 4
n -t 55.494007 -s 40 -S UP -v circle -c blue -x 73.79975 -y 88.99072 -z 4
n -t 56.14955 -s 12 -S UP -v circle -c blue -x 118.11683 -y 267.51477 -z 4
n -t 56.397114 -s 38 -S UP -v circle -c blue -x 189.1295 -y 401.77512 -z 4
n -t 56.42465 -s 17 -S UP -v circle -c blue -x 271.47632 -y 261.7076 -z 4
n -t 57.42339 -s 15 -S UP -v circle -c blue -x 269.72275 -y 345.80142 -z 4
n -t 58.04421 -s 12 -S UP -v circle -c blue -x 108.05664 -y 251.51076 -z 4
n -t 58.745583 -s 44 -S UP -v circle -c blue -x 265.05676 -y 110.0828 -z 4
n -t 61.600986 -s 14 -S UP -v circle -c blue -x 421.4803 -y 292.90958 -z 4
n -t 61.76995 -s 26 -S UP -v circle -c blue -x 474.82263 -y 396.84506 -z 4
n -t 62.905624 -s 47 -S UP -v circle -c blue -x 255.50482 -y 407.3359 -z 4
n -t 62.92146 -s 37 -S UP -v circle -c blue -x 21.248705 -y 479.22357 -z 4
n -t 63.649628 -s 47 -S UP -v circle -c blue -x 246.40411 -y 399.74847 -z 4
n -t 64.14124 -s 31 -S UP -v circle -c blue -x 127.2791 -y 116.87583 -z 4
n -t 64.30108 -s 26 -S UP -v circle -c blue -x 460.4218 -y 425.67657 -z 4
n -t 64.6043 -s 29 -S UP -v circle -c blue -x 385.89487 -y 470.06885 -z 4
n -t 68.18719 -s 45 -S UP -v circle -c blue -x 35.145763 -y 4.650848 -z 4
n -t 69.39953 -s 18 -S UP -v circle -c blue -x 379.79013 -y 299.08655 -z 4
n -t 69.4288 -s 48 -S UP -v circle -c blue -x 28.796816 -y 210.36423 -z 4
n -t 69.47377 -s 38 -S UP -v circle -c blue -x 242.60843 -y 373.78738 -z 4
n -t 69.6973 -s 18 -S UP -v circle -c blue -x 380.88397 -y 299.50864 -z 4
n -t 69.74604 -s 18 -S UP -v circle -c blue -x 380.8234 -y 299.18616 -z 4
n -t 70.345856 -s 26 -S UP -v circle -c blue -x 415.83987 -y 481.3653 -z 4
n -t 70.57977 -s 29 -S UP -v circle -c blue -x 414.66895 -y 400.49353 -z 4
n -t 71.38128 -s 20 -S UP -v circle -c blue -x 47.42018 -y 129.04938 -z 4
n -t 71.64215 -s 14 -S UP -v circle -c blue -x 488.13364 -y 318.169 -z 4
n -t 72.40621 -s 29 -S UP -v circle -c blue -x 411.08606 -y 400.10458 -z 4
n -t 74.3295 -s 14 -S UP -v circle -c blue -x 466.3089 -y 324.9962 -z 4
n -t 74.44428 -s 46 -S UP -v circle -c blue -x 329.10696 -y 46.630234 -z 4
n -t 74.91308 -s 40 -S UP -v circle -c blue -x 261.19223 -y 307.9265 -z 4
n -t 76.08345 -s 24 -S UP -v circle -c blue -x 464.52774 -y 275.8593 -z 4
n -t 77.31743 -s 28 -S UP -v circle -c blue -x 194.37666 -y 405.1958 -z 4
n -t 78.00202 -s 42 -S UP -v circle -c blue -x 146.81041 -y 264.96094 -z 4
n -t 78.67601 -s 17 -S UP -v circle -c blue -x 457.48816 -y 430.38858 -z 4
n -t 79.76631 -s 34 -S UP -v circle -c blue -x 123.81558 -y 334.88965 -z 4
n -t 80.04768 -s 36 -S UP -v circle -c blue -x 376.73627 -y 125.31823 -z 4
n -t 80.24292 -s 20 -S UP -v circle -c blue -x 36.727642 -y 125.44614 -z 4
n -t 80.57109 -s 20 -S UP -v circle -c blue -x 31.224297 -y 128.54407 -z 4
n -t 80.88148 -s 34 -S UP -v circle -c blue -x 116.529625 -y 316.89798 -z 4
n -t 80.99215 -s 20 -S UP -v circle -c blue -x 28.472616 -y 127.683464 -z 4
n -t 81.006874 -s 34 -S UP -v circle -c blue -x 115.2301 -y 315.6751 -z 4
n -t 81.58848 -s 45 -S UP -v circle -c blue -x 217.86134 -y 101.8623 -z 4
n -t 81.77492 -s 20 -S UP -v circle -c blue -x 33.24733 -y 115.42858 -z 4
n -t 82.50171 -s 11 -S UP -v circle -c blue -x 210.83917 -y 102.45463 -z 4
n -t 83.39361 -s 11 -S UP -v circle -c blue -x 217.86575 -y 100.543106 -z 4
n -t 83.70143 -s 22 -S UP -v circle -c blue -x 160.14638 -y 83.68456 -z 4
n -t 83.70387 -s 45 -S UP -v circle -c blue -x 194.53851 -y 127.9047 -z 4
n -t 83.94444 -s 26 -S UP -v circle -c blue -x 395.11993 -y 454.9146 -z 4
n -t 84.53728 -s 42 -S UP -v circle -c blue -x 83.47898 -y 253.88985 -z 4
n -t 84.698746 -s 14 -S UP -v circle -c blue -x 496.3672 -y 483.48923 -z 4
n -t 85.02621 -s 15 -S UP -v circle -c blue -x 105.20327 -y 224.01772 -z 4
n -t 85.52854 -s 36 -S UP -v circle -c blue -x 401.81113 -y 198.99603 -z 4
n -t 85.645454 -s 33 -S UP -v circle -c blue -x 188.06236 -y 65.462906 -z 4
n -t 85.65363 -s 48 -S UP -v circle -c blue -x 92.79262 -y 320.2328 -z 4
n -t 85.84958 -s 45 -S UP -v circle -c blue -x 179.29573 -y 111.95266 -z 4
n -t 86.68636 -s 11 -S UP -v circle -c blue -x 220.6529 -y 120.877396 -z 4
n -t 87.14475 -s 20 -S UP -v circle -c blue -x 44.381245 -y 143.8595 -z 4
n -t 87.34978 -s 28 -S UP -v circle -c blue -x 290.25778 -y 369.978 -z 4
n -t 87.41933 -s 24 -S UP -v circle -c blue -x 453.87445 -y 304.09305 -z 4
n -t 87.56516 -s 50 -S UP -v circle -c blue -x 102.207146 -y 390.26852 -z 4
n -t 87.686714 -s 33 -S UP -v circle -c blue -x 171.91914 -y 70.848946 -z 4
n -t 88.68625 -s 31 -S UP -v circle -c blue -x 71.10819 -y 24.92447 -z 4
n -t 89.125 -s 36 -S UP -v circle -c blue -x 404.01077 -y 267.3542 -z 4
n -t 89.43894 -s 14 -S UP -v circle -c blue -x 455.37286 -y 416.60248 -z 4
n -t 89.67197 -s 36 -S UP -v circle -c blue -x 410.65466 -y 265.63013 -z 4
n -t 89.73822 -s 31 -S UP -v circle -c blue -x 55.90817 -y 20.138723 -z 4
n -t 90.05094 -s 48 -S UP -v circle -c blue -x 40.156178 -y 293.06277 -z 4
n -t 90.18995 -s 33 -S UP -v circle -c blue -x 207.44696 -y 93.40515 -z 4
n -t 90.20673 -s 37 -S UP -v circle -c blue -x 21.379162 -y 385.82028 -z 4
n -t 90.591896 -s 15 -S UP -v circle -c blue -x 190.29723 -y 263.4156 -z 4
n -t 90.916306 -s 42 -S UP -v circle -c blue -x 162.0557 -y 325.06937 -z 4
n -t 91.30764 -s 11 -S UP -v circle -c blue -x 229.99512 -y 115.31709 -z 4
n -t 92.155525 -s 31 -S UP -v circle -c blue -x 32.11325 -y 12.781147 -z 4
n -t 92.556175 -s 11 -S UP -v circle -c blue -x 235.22647 -y 133.707 -z 4
n -t 92.607124 -s 26 -S UP -v circle -c blue -x 495.60046 -y 494.33167 -z 4
n -t 92.869934 -s 14 -S UP -v circle -c blue -x 484.74634 -y 405.76236 -z 4
n -t 93.68811 -s 15 -S UP -v circle -c blue -x 153.23126 -y 263.19275 -z 4
n -t 93.93826 -s 36 -S UP -v circle -c blue -x 391.37863 -y 258.0849 -z 4
n -t 94.11248 -s 47 -S UP -v circle -c blue -x 371.64832 -y 392.372 -z 4
n -t 94.48961 -s 11 -S UP -v circle -c blue -x 228.00272 -y 100.01823 -z 4
n -t 94.68245 -s 42 -S UP -v circle -c blue -x 142.20631 -y 309.9132 -z 4
n -t 95.08705 -s 18 -S UP -v circle -c blue -x 276.2628 -y 381.09045 -z 4
n -t 95.252235 -s 11 -S UP -v circle -c blue -x 220.6366 -y 112.58468 -z 4
n -t 95.333755 -s 26 -S UP -v circle -c blue -x 479.40182 -y 478.90558 -z 4
n -t 95.490326 -s 28 -S UP -v circle -c blue -x 230.95343 -y 258.04233 -z 4
n -t 96.06198 -s 45 -S UP -v circle -c blue -x 157.0716 -y 91.8058 -z 4
n -t 96.6152 -s 45 -S UP -v circle -c blue -x 151.19081 -y 97.33463 -z 4
n -t 96.933586 -s 34 -S UP -v circle -c blue -x 118.98713 -y 313.58365 -z 4
n -t 98.40232 -s 33 -S UP -v circle -c blue -x 245.7602 -y 0.6045661 -z 4
n -t 98.46884 -s 45 -S UP -v circle -c blue -x 128.21817 -y 111.99082 -z 4
n -t 99.08955 -s 24 -S UP -v circle -c blue -x 485.11682 -y 248.92906 -z 4
n -t 99.132 -s 17 -S UP -v circle -c blue -x 488.3852 -y 468.24036 -z 4
n -t 99.14289 -s 26 -S UP -v circle -c blue -x 437.07608 -y 495.94113 -z 4
n -t 100.61316 -s 47 -S UP -v circle -c blue -x 429.1558 -y 457.1469 -z 4
n -t 101.20187 -s 31 -S UP -v circle -c blue -x 63.4792 -y 44.04955 -z 4
n -t 101.695755 -s 26 -S UP -v circle -c blue -x 460.772 -y 467.75827 -z 4
n -t 101.87978 -s 20 -S UP -v circle -c blue -x 71.812584 -y 140.93213 -z 4
n -t 101.88171 -s 45 -S UP -v circle -c blue -x 109.612686 -y 74.03109 -z 4
n -t 102.88782 -s 20 -S UP -v circle -c blue -x 72.87176 -y 136.3404 -z 4
n -t 103.60828 -s 11 -S UP -v circle -c blue -x 183.00784 -y 164.74182 -z 4
n -t 103.72811 -s 15 -S UP -v circle -c blue -x 180.97519 -y 279.56104 -z 4
n -t 104.84804 -s 37 -S UP -v circle -c blue -x 154.93958 -y 478.92065 -z 4
n -t 104.978165 -s 37 -S UP -v circle -c blue -x 155.63002 -y 478.07462 -z 4
n -t 105.05915 -s 48 -S UP -v circle -c blue -x 189.74605 -y 319.61362 -z 4
n -t 105.38254 -s 34 -S UP -v circle -c blue -x 18.567852 -y 398.44598 -z 4
n -t 105.82053 -s 26 -S UP -v circle -c blue -x 457.7411 -y 422.00406 -z 4
n -t 107.65397 -s 41 -S UP -v circle -c blue -x 114.88803 -y 394.53278 -z 4
n -t 108.17815 -s 47 -S UP -v circle -c blue -x 361.04037 -y 371.76413 -z 4
n -t 108.45021 -s 17 -S UP -v circle -c blue -x 468.47256 -y 453.85248 -z 4
n -t 109.09298 -s 14 -S UP -v circle -c blue -x 425.28262 -y 493.89893 -z 4
n -t 109.35406 -s 34 -S UP -v circle -c blue -x 29.116196 -y 376.018 -z 4
n -t 109.38528 -s 12 -S UP -v circle -c blue -x 236.42783 -y 489.29434 -z 4
n -t 109.989555 -s 14 -S UP -v circle -c blue -x 432.03085 -y 495.3154 -z 4
n -t 110.15498 -s 12 -S UP -v circle -c blue -x 243.88882 -y 499.88638 -z 4
n -t 110.42963 -s 17 -S UP -v circle -c blue -x 457.58 -y 419.24075 -z 4
n -t 110.56485 -s 20 -S UP -v circle -c blue -x 35.76498 -y 164.42125 -z 4
n -t 110.58073 -s 18 -S UP -v circle -c blue -x 312.1697 -y 396.15933 -z 4
n -t 110.88986 -s 28 -S UP -v circle -c blue -x 354.50308 -y 364.8398 -z 4
n -t 111.19463 -s 26 -S UP -v circle -c blue -x 437.6616 -y 388.4244 -z 4
n -t 111.27791 -s 11 -S UP -v circle -c blue -x 182.03148 -y 104.56364 -z 4
n -t 111.31229 -s 28 -S UP -v circle -c blue -x 357.58463 -y 370.01007 -z 4
n -t 111.56669 -s 48 -S UP -v circle -c blue -x 194.26047 -y 414.533 -z 4
n -t 111.82364 -s 24 -S UP -v circle -c blue -x 380.03537 -y 332.01083 -z 4
n -t 111.87075 -s 44 -S UP -v circle -c blue -x 284.666 -y 166.60498 -z 4
n -t 112.34448 -s 24 -S UP -v circle -c blue -x 381.71625 -y 342.13556 -z 4
n -t 112.40426 -s 18 -S UP -v circle -c blue -x 305.36038 -y 394.12402 -z 4
n -t 113.06176 -s 26 -S UP -v circle -c blue -x 426.52914 -y 393.95798 -z 4
n -t 113.2577 -s 41 -S UP -v circle -c blue -x 32.699997 -y 416.8353 -z 4
n -t 113.5986 -s 48 -S UP -v circle -c blue -x 213.24908 -y 431.1045 -z 4
n -t 113.715614 -s 41 -S UP -v circle -c blue -x 36.8056 -y 415.81192 -z 4
n -t 114.309006 -s 20 -S UP -v circle -c blue -x 61.988457 -y 178.51839 -z 4
n -t 114.407265 -s 35 -S UP -v circle -c blue -x 218.35413 -y 293.89978 -z 4
n -t 114.88546 -s 17 -S UP -v circle -c blue -x 421.9897 -y 474.16885 -z 4
n -t 115.52222 -s 41 -S UP -v circle -c blue -x 32.195652 -y 394.3065 -z 4
n -t 116.45653 -s 22 -S UP -v circle -c blue -x 93.26567 -y 2.5669951 -z 4
n -t 116.66311 -s 22 -S UP -v circle -c blue -x 94.40592 -y 0.54858625 -z 4
n -t 117.10397 -s 23 -S UP -v circle -c blue -x 20.99776 -y 260.66357 -z 4
n -t 117.39819 -s 12 -S UP -v circle -c blue -x 227.07336 -y 442.08084 -z 4
n -t 118.21777 -s 18 -S UP -v circle -c blue -x 306.4242 -y 432.1732 -z 4
n -t 118.238754 -s 45 -S UP -v circle -c blue -x 46.68666 -y 116.702034 -z 4
n -t 118.36159 -s 22 -S UP -v circle -c blue -x 100.423134 -y 15.218702 -z 4
n -t 120.14178 -s 12 -S UP -v circle -c blue -x 263.81 -y 456.07245 -z 4
n -t 121.57989 -s 13 -S UP -v circle -c blue -x 264.17508 -y 34.35155 -z 4
n -t 121.59966 -s 36 -S UP -v circle -c blue -x 430.99915 -y 195.78302 -z 4
n -t 121.80813 -s 44 -S UP -v circle -c blue -x 402.6685 -y 127.79951 -z 4
n -t 121.87142 -s 41 -S UP -v circle -c blue -x 126.49173 -y 337.69296 -z 4
n -t 122.55725 -s 36 -S UP -v circle -c blue -x 418.52252 -y 197.11314 -z 4
n -t 122.87074 -s 20 -S UP -v circle -c blue -x 32.8202 -y 139.5636 -z 4
n -t 123.63361 -s 36 -S UP -v circle -c blue -x 414.23618 -y 215.33109 -z 4
n -t 124.29326 -s 24 -S UP -v circle -c blue -x 298.96698 -y 375.8789 -z 4
n -t 124.523964 -s 41 -S UP -v circle -c blue -x 75.39537 -y 350.95554 -z 4
n -t 125.03653 -s 42 -S UP -v circle -c blue -x 32.159367 -y 256.34634 -z 4
n -t 125.44979 -s 11 -S UP -v circle -c blue -x 239.57288 -y 130.83324 -z 4
n -t 126.38705 -s 12 -S UP -v circle -c blue -x 227.68356 -y 406.28757 -z 4
n -t 126.93977 -s 28 -S UP -v circle -c blue -x 499.29395 -y 104.42217 -z 4
n -t 127.859566 -s 44 -S UP -v circle -c blue -x 449.10983 -y 109.19358 -z 4
n -t 127.95474 -s 17 -S UP -v circle -c blue -x 373.86197 -y 312.2153 -z 4
n -t 128.12395 -s 23 -S UP -v circle -c blue -x 56.54769 -y 216.71751 -z 4
n -t 128.23718 -s 13 -S UP -v circle -c blue -x 338.0512 -y 102.385666 -z 4
n -t 128.33888 -s 41 -S UP -v circle -c blue -x 34.64126 -y 311.64453 -z 4
n -t 128.41698 -s 17 -S UP -v circle -c blue -x 372.65802 -y 320.444 -z 4
n -t 128.7807 -s 22 -S UP -v circle -c blue -x 139.95645 -y 6.550501 -z 4
n -t 129.30032 -s 24 -S UP -v circle -c blue -x 234.6035 -y 396.99835 -z 4