# Trace file generated by Jist/Swans Version 1.0.6. at Fri Jul 26 20:29:43 BRT 2013
V -t * -v 1.0a5 -a 0
W -t * -x 410 -y 410
A -t * -n 1 -p 0 -o 0xffffffff -c 31 -a 1
A -t * -h 1 -m 2147483647 -s 0
n -t 0.0 -s 1 -S UP -v circle -c red -x 381.9651 -y 435.0122 -z 4
n -t 0.0 -s 2 -S UP -v circle -c red -x 22.13806 -y 465.44107 -z 4
n -t 0.0 -s 3 -S UP -v circle -c red -x 317.569 -y 226.69608 -z 4
n -t 0.0 -s 4 -S UP -v circle -c red -x 428.67657 -y 14.027744 -z 4
n -t 0.0 -s 5 -S UP -v circle -c red -x 301.07047 -y 102.91064 -z 4
n -t 0.0 -s 6 -S UP -v circle -c red -x 100.2309 -y 69.822044 -z 4
n -t 0.0 -s 7 -S UP -v circle -c red -x 249.2603 -y 133.05777 -z 4
n -t 0.0 -s 8 -S UP -v circle -c red -x 6.327361 -y 129.69276 -z 4
n -t 0.0 -s 9 -S UP -v circle -c blue -x 395.19498 -y 187.76637 -z 4
n -t 0.0 -s 10 -S UP -v circle -c blue -x 437.40582 -y 281.3673 -z 4
n -t 0.0 -s 11 -S UP -v circle -c blue -x 323.51776 -y 47.06347 -z 4
n -t 0.0 -s 12 -S UP -v circle -c blue -x 154.09148 -y 1.8846393 -z 4
n -t 0.0 -s 13 -S UP -v circle -c blue -x 227.76419 -y 136.19125 -z 4
n -t 0.0 -s 14 -S UP -v circle -c blue -x 171.75114 -y 241.55457 -z 4
n -t 0.0 -s 15 -S UP -v circle -c blue -x 123.34612 -y 119.73268 -z 4
n -t 0.0 -s 16 -S UP -v circle -c blue -x 225.36621 -y 260.1633 -z 4
n -t 0.0 -s 17 -S UP -v circle -c blue -x 275.60638 -y 466.81378 -z 4
n -t 0.0 -s 18 -S UP -v circle -c blue -x 444.14566 -y 491.65427 -z 4
n -t 0.0 -s 19 -S UP -v circle -c blue -x 7.4584484 -y 386.46057 -z 4
n -t 0.0 -s 20 -S UP -v circle -c blue -x 417.4504 -y 230.18414 -z 4
n -t 0.0 -s 21 -S UP -v circle -c blue -x 23.662031 -y 463.4267 -z 4
n -t 0.0 -s 22 -S UP -v circle -c blue -x 142.27214 -y 180.19038 -z 4
n -t 0.0 -s 23 -S UP -v circle -c blue -x 499.53568 -y 368.2594 -z 4
n -t 0.0 -s 24 -S UP -v circle -c blue -x 491.78842 -y 210.8446 -z 4
n -t 0.0 -s 25 -S UP -v circle -c blue -x 9.4845 -y 489.8833 -z 4
n -t 0.0 -s 26 -S UP -v circle -c blue -x 338.79526 -y 230.01314 -z 4
n -t 0.0 -s 27 -S UP -v circle -c blue -x 126.55276 -y 39.964764 -z 4
n -t 0.0 -s 28 -S UP -v circle -c blue -x 256.8073 -y 212.6686 -z 4
n -t 0.0 -s 29 -S UP -v circle -c blue -x 177.53273 -y 2.7460158 -z 4
n -t 0.0 -s 30 -S UP -v circle -c blue -x 325.33102 -y 15.720039 -z 4
n -t 0.0 -s 31 -S UP -v circle -c blue -x 41.02549 -y 375.44382 -z 4
n -t 0.0 -s 32 -S UP -v circle -c blue -x 199.59221 -y 406.6499 -z 4
n -t 0.0 -s 33 -S UP -v circle -c blue -x 388.12006 -y 437.78925 -z 4
n -t 0.0 -s 34 -S UP -v circle -c blue -x 304.47885 -y 362.4138 -z 4
n -t 0.0 -s 35 -S UP -v circle -c blue -x 379.70798 -y 256.50314 -z 4
n -t 0.0 -s 36 -S UP -v circle -c blue -x 258.60315 -y 332.09286 -z 4
n -t 0.0 -s 37 -S UP -v circle -c blue -x 301.3709 -y 324.68066 -z 4
n -t 0.0 -s 38 -S UP -v circle -c blue -x 478.4563 -y 140.1658 -z 4
n -t 0.0 -s 39 -S UP -v circle -c blue -x 69.57167 -y 436.9783 -z 4
n -t 0.0 -s 40 -S UP -v circle -c blue -x 101.217896 -y 164.43053 -z 4
n -t 0.0 -s 41 -S UP -v circle -c blue -x 122.651306 -y 240.51315 -z 4
n -t 0.0 -s 42 -S UP -v circle -c blue -x 464.7723 -y 395.05762 -z 4
n -t 0.0 -s 43 -S UP -v circle -c blue -x 190.82216 -y 486.39838 -z 4
n -t 0.0 -s 44 -S UP -v circle -c blue -x 407.09265 -y 49.565582 -z 4
n -t 0.0 -s 45 -S UP -v circle -c blue -x 352.6763 -y 47.331573 -z 4
n -t 0.0 -s 46 -S UP -v circle -c blue -x 176.89386 -y 327.30066 -z 4
n -t 0.0 -s 47 -S UP -v circle -c blue -x 46.260746 -y 198.65265 -z 4
n -t 0.0 -s 48 -S UP -v circle -c blue -x 61.16459 -y 169.97179 -z 4
n -t 0.0 -s 49 -S UP -v circle -c blue -x 232.8622 -y 271.3973 -z 4
n -t 0.0 -s 50 -S UP -v circle -c blue -x 31.004011 -y 499.69043 -z 4
n -t 0.0 -s 51 -S UP -v circle -c blue -x 266.47464 -y 340.24847 -z 4
n -t 0.0 -s 52 -S UP -v circle -c blue -x 328.57693 -y 319.60992 -z 4
n -t 0.0 -s 53 -S UP -v circle -c blue -x 14.477968 -y 472.65524 -z 4
n -t 0.0 -s 54 -S UP -v circle -c blue -x 78.72176 -y 435.52777 -z 4
n -t 0.0 -s 55 -S UP -v circle -c blue -x 101.13865 -y 330.03198 -z 4
n -t 0.0 -s 56 -S UP -v circle -c blue -x 17.88953 -y 329.65308 -z 4
n -t 0.0 -s 57 -S UP -v circle -c blue -x 8.765101 -y 21.715282 -z 4
n -t 0.0 -s 58 -S UP -v circle -c blue -x 420.04575 -y 244.14613 -z 4
n -t 0.0 -s 59 -S UP -v circle -c blue -x 8.138657 -y 487.65674 -z 4
n -t 0.0 -s 60 -S UP -v circle -c blue -x 338.64517 -y 205.08353 -z 4
n -t 0.0 -s 61 -S UP -v circle -c blue -x 94.43238 -y 348.63507 -z 4
n -t 0.0 -s 62 -S UP -v circle -c blue -x 20.80524 -y 94.31091 -z 4
n -t 0.0 -s 63 -S UP -v circle -c blue -x 254.27684 -y 361.61728 -z 4
n -t 0.0 -s 64 -S UP -v circle -c blue -x 124.69292 -y 303.41333 -z 4
n -t 0.0 -s 65 -S UP -v circle -c blue -x 468.79596 -y 452.8851 -z 4
n -t 0.0 -s 66 -S UP -v circle -c blue -x 344.54587 -y 241.0116 -z 4
n -t 0.0 -s 67 -S UP -v circle -c blue -x 483.9951 -y 349.32703 -z 4
n -t 0.0 -s 68 -S UP -v circle -c blue -x 325.62845 -y 311.09915 -z 4
n -t 0.0 -s 69 -S UP -v circle -c blue -x 429.32294 -y 267.10327 -z 4
n -t 0.0 -s 70 -S UP -v circle -c blue -x 10.046392 -y 399.54657 -z 4
n -t 0.0 -s 71 -S UP -v circle -c blue -x 95.85321 -y 351.50433 -z 4
n -t 0.0 -s 72 -S UP -v circle -c blue -x 165.29152 -y 150.66147 -z 4
n -t 0.0 -s 73 -S UP -v circle -c blue -x 363.45026 -y 348.59134 -z 4
n -t 0.0 -s 74 -S UP -v circle -c blue -x 2.5586188 -y 52.30355 -z 4
n -t 0.0 -s 75 -S UP -v circle -c blue -x 290.42508 -y 61.040043 -z 4
n -t 0.0 -s 76 -S UP -v circle -c blue -x 128.46909 -y 282.08563 -z 4
n -t 0.0 -s 77 -S UP -v circle -c blue -x 406.2891 -y 331.9791 -z 4
n -t 0.0 -s 78 -S UP -v circle -c blue -x 299.38104 -y 268.26837 -z 4
n -t 0.0 -s 79 -S UP -v circle -c blue -x 317.8259 -y 172.55649 -z 4
n -t 0.0 -s 80 -S UP -v circle -c blue -x 464.78418 -y 145.77353 -z 4
n -t 0.0 -s 81 -S UP -v circle -c blue -x 398.1876 -y 114.08082 -z 4
n -t 0.0 -s 82 -S UP -v circle -c blue -x 118.521866 -y 313.04822 -z 4
n -t 0.0 -s 83 -S UP -v circle -c blue -x 258.2598 -y 313.0265 -z 4
n -t 0.0 -s 84 -S UP -v circle -c blue -x 192.20772 -y 231.13087 -z 4
n -t 0.0 -s 85 -S UP -v circle -c blue -x 337.1137 -y 357.6887 -z 4
n -t 0.0 -s 86 -S UP -v circle -c blue -x 362.97617 -y 228.07437 -z 4
n -t 0.0 -s 87 -S UP -v circle -c blue -x 114.7784 -y 336.1071 -z 4
n -t 0.0 -s 88 -S UP -v circle -c blue -x 141.7121 -y 444.81638 -z 4
n -t 0.0 -s 89 -S UP -v circle -c blue -x 474.4333 -y 94.8984 -z 4
n -t 0.0 -s 90 -S UP -v circle -c blue -x 212.53717 -y 161.65387 -z 4
n -t 0.0 -s 91 -S UP -v circle -c blue -x 83.86529 -y 293.25262 -z 4
n -t 0.0 -s 92 -S UP -v circle -c blue -x 409.29294 -y 95.74649 -z 4
n -t 0.0 -s 93 -S UP -v circle -c blue -x 46.89595 -y 482.5328 -z 4
n -t 0.0 -s 94 -S UP -v circle -c blue -x 210.0805 -y 41.66773 -z 4
n -t 0.0 -s 95 -S UP -v circle -c blue -x 96.51392 -y 393.2068 -z 4
n -t 0.0 -s 96 -S UP -v circle -c blue -x 171.9175 -y 410.13873 -z 4
n -t 0.0 -s 97 -S UP -v circle -c blue -x 372.5053 -y 112.32778 -z 4
n -t 0.0 -s 98 -S UP -v circle -c blue -x 99.90484 -y 189.96754 -z 4
n -t 0.0 -s 99 -S UP -v circle -c blue -x 90.14079 -y 88.133514 -z 4
n -t 0.0 -s 100 -S UP -v circle -c blue -x 179.91454 -y 39.195625 -z 4
n -t 0.0 -s 1 -S UP -v circle -c red -x 381.9651 -y 435.0122 -z 4
n -t 0.0 -s 3 -S UP -v circle -c red -x 317.569 -y 226.69608 -z 4
n -t 0.0 -s 7 -S UP -v circle -c red -x 249.2603 -y 133.05777 -z 4
n -t 0.0 -s 15 -S UP -v circle -c blue -x 123.34612 -y 119.73268 -z 4
n -t 0.0 -s 31 -S UP -v circle -c blue -x 41.02549 -y 375.44382 -z 4
n -t 0.0 -s 63 -S UP -v circle -c blue -x 254.27684 -y 361.61728 -z 4
n -t 0.0 -s 64 -S UP -v circle -c blue -x 124.69292 -y 303.41333 -z 4
n -t 0.0 -s 32 -S UP -v circle -c blue -x 199.59221 -y 406.6499 -z 4
n -t 0.0 -s 65 -S UP -v circle -c blue -x 468.79596 -y 452.8851 -z 4
n -t 0.0 -s 66 -S UP -v circle -c blue -x 344.54587 -y 241.0116 -z 4
n -t 0.0 -s 16 -S UP -v circle -c blue -x 225.36621 -y 260.1633 -z 4
n -t 0.0 -s 33 -S UP -v circle -c blue -x 388.12006 -y 437.78925 -z 4
n -t 0.0 -s 67 -S UP -v circle -c blue -x 483.9951 -y 349.32703 -z 4
n -t 0.0 -s 68 -S UP -v circle -c blue -x 325.62845 -y 311.09915 -z 4
n -t 0.0 -s 34 -S UP -v circle -c blue -x 304.47885 -y 362.4138 -z 4
n -t 0.0 -s 69 -S UP -v circle -c blue -x 429.32294 -y 267.10327 -z 4
n -t 0.0 -s 70 -S UP -v circle -c blue -x 10.046392 -y 399.54657 -z 4
n -t 0.0 -s 8 -S UP -v circle -c red -x 6.327361 -y 129.69276 -z 4
n -t 0.0 -s 17 -S UP -v circle -c blue -x 275.60638 -y 466.81378 -z 4
n -t 0.0 -s 35 -S UP -v circle -c blue -x 379.70798 -y 256.50314 -z 4
n -t 0.0 -s 71 -S UP -v circle -c blue -x 95.85321 -y 351.50433 -z 4
n -t 0.0 -s 72 -S UP -v circle -c blue -x 165.29152 -y 150.66147 -z 4
n -t 0.0 -s 36 -S UP -v circle -c blue -x 258.60315 -y 332.09286 -z 4
n -t 0.0 -s 73 -S UP -v circle -c blue -x 363.45026 -y 348.59134 -z 4
n -t 0.0 -s 74 -S UP -v circle -c blue -x 2.5586188 -y 52.30355 -z 4
n -t 0.0 -s 18 -S UP -v circle -c blue -x 444.14566 -y 491.65427 -z 4
n -t 0.0 -s 37 -S UP -v circle -c blue -x 301.3709 -y 324.68066 -z 4
n -t 0.0 -s 75 -S UP -v circle -c blue -x 290.42508 -y 61.040043 -z 4
n -t 0.0 -s 76 -S UP -v circle -c blue -x 128.46909 -y 282.08563 -z 4
n -t 0.0 -s 38 -S UP -v circle -c blue -x 478.4563 -y 140.1658 -z 4
n -t 0.0 -s 77 -S UP -v circle -c blue -x 406.2891 -y 331.9791 -z 4
n -t 0.0 -s 78 -S UP -v circle -c blue -x 299.38104 -y 268.26837 -z 4
n -t 0.0 -s 4 -S UP -v circle -c red -x 428.67657 -y 14.027744 -z 4
n -t 0.0 -s 9 -S UP -v circle -c blue -x 395.19498 -y 187.76637 -z 4
n -t 0.0 -s 19 -S UP -v circle -c blue -x 7.4584484 -y 386.46057 -z 4
n -t 0.0 -s 39 -S UP -v circle -c blue -x 69.57167 -y 436.9783 -z 4
n -t 0.0 -s 79 -S UP -v circle -c blue -x 317.8259 -y 172.55649 -z 4
n -t 0.0 -s 80 -S UP -v circle -c blue -x 464.78418 -y 145.77353 -z 4
n -t 0.0 -s 40 -S UP -v circle -c blue -x 101.217896 -y 164.43053 -z 4
n -t 0.0 -s 81 -S UP -v circle -c blue -x 398.1876 -y 114.08082 -z 4
n -t 0.0 -s 82 -S UP -v circle -c blue -x 118.521866 -y 313.04822 -z 4
n -t 0.0 -s 20 -S UP -v circle -c blue -x 417.4504 -y 230.18414 -z 4
n -t 0.0 -s 41 -S UP -v circle -c blue -x 122.651306 -y 240.51315 -z 4
n -t 0.0 -s 83 -S UP -v circle -c blue -x 258.2598 -y 313.0265 -z 4
n -t 0.0 -s 84 -S UP -v circle -c blue -x 192.20772 -y 231.13087 -z 4
n -t 0.0 -s 42 -S UP -v circle -c blue -x 464.7723 -y 395.05762 -z 4
n -t 0.0 -s 85 -S UP -v circle -c blue -x 337.1137 -y 357.6887 -z 4
n -t 0.0 -s 86 -S UP -v circle -c blue -x 362.97617 -y 228.07437 -z 4
n -t 0.0 -s 10 -S UP -v circle -c blue -x 437.40582 -y 281.3673 -z 4
n -t 0.0 -s 21 -S UP -v circle -c blue -x 23.662031 -y 463.4267 -z 4
n -t 0.0 -s 43 -S UP -v circle -c blue -x 190.82216 -y 486.39838 -z 4
n -t 0.0 -s 87 -S UP -v circle -c blue -x 114.7784 -y 336.1071 -z 4
n -t 0.0 -s 88 -S UP -v circle -c blue -x 141.7121 -y 444.81638 -z 4
n -t 0.0 -s 44 -S UP -v circle -c blue -x 407.09265 -y 49.565582 -z 4
n -t 0.0 -s 89 -S UP -v circle -c blue -x 474.4333 -y 94.8984 -z 4
n -t 0.0 -s 90 -S UP -v circle -c blue -x 212.53717 -y 161.65387 -z 4
n -t 0.0 -s 22 -S UP -v circle -c blue -x 142.27214 -y 180.19038 -z 4
n -t 0.0 -s 45 -S UP -v circle -c blue -x 352.6763 -y 47.331573 -z 4
n -t 0.0 -s 91 -S UP -v circle -c blue -x 83.86529 -y 293.25262 -z 4
n -t 0.0 -s 92 -S UP -v circle -c blue -x 409.29294 -y 95.74649 -z 4
n -t 0.0 -s 46 -S UP -v circle -c blue -x 176.89386 -y 327.30066 -z 4
n -t 0.0 -s 93 -S UP -v circle -c blue -x 46.89595 -y 482.5328 -z 4
n -t 0.0 -s 94 -S UP -v circle -c blue -x 210.0805 -y 41.66773 -z 4
n -t 0.0 -s 2 -S UP -v circle -c red -x 22.13806 -y 465.44107 -z 4
n -t 0.0 -s 5 -S UP -v circle -c red -x 301.07047 -y 102.91064 -z 4
n -t 0.0 -s 11 -S UP -v circle -c blue -x 323.51776 -y 47.06347 -z 4
n -t 0.0 -s 23 -S UP -v circle -c blue -x 499.53568 -y 368.2594 -z 4
n -t 0.0 -s 47 -S UP -v circle -c blue -x 46.260746 -y 198.65265 -z 4
n -t 0.0 -s 95 -S UP -v circle -c blue -x 96.51392 -y 393.2068 -z 4
n -t 0.0 -s 96 -S UP -v circle -c blue -x 171.9175 -y 410.13873 -z 4
n -t 0.0 -s 48 -S UP -v circle -c blue -x 61.16459 -y 169.97179 -z 4
n -t 0.0 -s 97 -S UP -v circle -c blue -x 372.5053 -y 112.32778 -z 4
n -t 0.0 -s 98 -S UP -v circle -c blue -x 99.90484 -y 189.96754 -z 4
n -t 0.0 -s 24 -S UP -v circle -c blue -x 491.78842 -y 210.8446 -z 4
n -t 0.0 -s 49 -S UP -v circle -c blue -x 232.8622 -y 271.3973 -z 4
n -t 0.0 -s 99 -S UP -v circle -c blue -x 90.14079 -y 88.133514 -z 4
n -t 0.0 -s 100 -S UP -v circle -c blue -x 179.91454 -y 39.195625 -z 4
n -t 0.0 -s 50 -S UP -v circle -c blue -x 31.004011 -y 499.69043 -z 4
n -t 0.0 -s 12 -S UP -v circle -c blue -x 154.09148 -y 1.8846393 -z 4
n -t 0.0 -s 25 -S UP -v circle -c blue -x 9.4845 -y 489.8833 -z 4
n -t 0.0 -s 51 -S UP -v circle -c blue -x 266.47464 -y 340.24847 -z 4
n -t 0.0 -s 52 -S UP -v circle -c blue -x 328.57693 -y 319.60992 -z 4
n -t 0.0 -s 26 -S UP -v circle -c blue -x 338.79526 -y 230.01314 -z 4
n -t 0.0 -s 53 -S UP -v circle -c blue -x 14.477968 -y 472.65524 -z 4
n -t 0.0 -s 54 -S UP -v circle -c blue -x 78.72176 -y 435.52777 -z 4
n -t 0.0 -s 6 -S UP -v circle -c red -x 100.2309 -y 69.822044 -z 4
n -t 0.0 -s 13 -S UP -v circle -c blue -x 227.76419 -y 136.19125 -z 4
n -t 0.0 -s 27 -S UP -v circle -c blue -x 126.55276 -y 39.964764 -z 4
n -t 0.0 -s 55 -S UP -v circle -c blue -x 101.13865 -y 330.03198 -z 4
n -t 0.0 -s 56 -S UP -v circle -c blue -x 17.88953 -y 329.65308 -z 4
n -t 0.0 -s 28 -S UP -v circle -c blue -x 256.8073 -y 212.6686 -z 4
n -t 0.0 -s 57 -S UP -v circle -c blue -x 8.765101 -y 21.715282 -z 4
n -t 0.0 -s 58 -S UP -v circle -c blue -x 420.04575 -y 244.14613 -z 4
n -t 0.0 -s 14 -S UP -v circle -c blue -x 171.75114 -y 241.55457 -z 4
n -t 0.0 -s 29 -S UP -v circle -c blue -x 177.53273 -y 2.7460158 -z 4
n -t 0.0 -s 59 -S UP -v circle -c blue -x 8.138657 -y 487.65674 -z 4
n -t 0.0 -s 60 -S UP -v circle -c blue -x 338.64517 -y 205.08353 -z 4
n -t 0.0 -s 30 -S UP -v circle -c blue -x 325.33102 -y 15.720039 -z 4
n -t 0.0 -s 61 -S UP -v circle -c blue -x 94.43238 -y 348.63507 -z 4
n -t 0.0 -s 62 -S UP -v circle -c blue -x 20.80524 -y 94.31091 -z 4
n -t 1.8411824 -s 79 -S UP -v circle -c blue -x 298.4968 -y 196.65398 -z 4
n -t 2.2576153 -s 37 -S UP -v circle -c blue -x 313.87048 -y 282.6152 -z 4
n -t 2.6879592 -s 90 -S UP -v circle -c blue -x 202.98347 -y 200.22876 -z 4
n -t 3.848916 -s 34 -S UP -v circle -c blue -x 235.79895 -y 364.60367 -z 4
n -t 4.1828475 -s 48 -S UP -v circle -c blue -x 91.45125 -y 140.8473 -z 4
n -t 4.5943546 -s 23 -S UP -v circle -c blue -x 424.1161 -y 371.48215 -z 4
n -t 4.7460637 -s 40 -S UP -v circle -c blue -x 157.68385 -y 102.61073 -z 4
n -t 6.7446284 -s 75 -S UP -v circle -c blue -x 250.21059 -y 154.90247 -z 4
n -t 6.8989663 -s 16 -S UP -v circle -c blue -x 307.03314 -y 249.43402 -z 4
n -t 8.147691 -s 71 -S UP -v circle -c blue -x 71.58456 -y 498.9973 -z 4
n -t 8.562046 -s 44 -S UP -v circle -c blue -x 357.85342 -y 21.511267 -z 4
n -t 9.112851 -s 7 -S UP -v circle -c red -x 359.90295 -y 24.470932 -z 4
n -t 9.201011 -s 81 -S UP -v circle -c blue -x 246.75209 -y 91.52024 -z 4
n -t 9.2855425 -s 63 -S UP -v circle -c blue -x 141.52406 -y 218.67783 -z 4
n -t 10.028823 -s 69 -S UP -v circle -c blue -x 276.1182 -y 151.02866 -z 4
n -t 10.216103 -s 42 -S UP -v circle -c blue -x 284.86215 -y 353.03732 -z 4
n -t 11.2752695 -s 78 -S UP -v circle -c blue -x 179.86983 -y 379.32315 -z 4
n -t 12.128451 -s 100 -S UP -v circle -c blue -x 17.596924 -y 128.80505 -z 4
n -t 12.211039 -s 74 -S UP -v circle -c blue -x 115.15287 -y 241.63013 -z 4
n -t 13.2191105 -s 10 -S UP -v circle -c blue -x 399.6265 -y 422.74612 -z 4
n -t 13.240747 -s 17 -S UP -v circle -c blue -x 224.3821 -y 260.91016 -z 4
n -t 13.557391 -s 84 -S UP -v circle -c blue -x 430.80637 -y 159.5119 -z 4
n -t 13.696072 -s 64 -S UP -v circle -c blue -x 361.52698 -y 377.7195 -z 4
n -t 13.717626 -s 96 -S UP -v circle -c blue -x 380.06378 -y 401.06412 -z 4
n -t 14.352485 -s 24 -S UP -v circle -c blue -x 251.74236 -y 68.5441 -z 4
n -t 15.019106 -s 76 -S UP -v circle -c blue -x 32.83339 -y 163.18091 -z 4
n -t 15.350857 -s 15 -S UP -v circle -c blue -x 37.80375 -y 247.86723 -z 4
n -t 15.517197 -s 65 -S UP -v circle -c blue -x 356.52145 -y 353.55838 -z 4
n -t 15.804716 -s 8 -S UP -v circle -c red -x 112.357056 -y 426.6336 -z 4
n -t 16.422937 -s 32 -S UP -v circle -c blue -x 494.26892 -y 438.39645 -z 4
n -t 16.677282 -s 11 -S UP -v circle -c blue -x 73.24538 -y 58.194393 -z 4
n -t 16.955742 -s 40 -S UP -v circle -c blue -x 259.8628 -y 186.2419 -z 4
n -t 17.192724 -s 98 -S UP -v circle -c blue -x 11.482803 -y 465.79285 -z 4
n -t 17.55704 -s 51 -S UP -v circle -c blue -x 59.852142 -y 234.62764 -z 4
n -t 17.674673 -s 73 -S UP -v circle -c blue -x 400.7607 -y 18.453033 -z 4
n -t 18.391943 -s 80 -S UP -v circle -c blue -x 306.22565 -y 242.52986 -z 4
n -t 18.585167 -s 6 -S UP -v circle -c red -x 159.77821 -y 217.75146 -z 4
n -t 19.089905 -s 90 -S UP -v circle -c blue -x 187.48424 -y 444.18536 -z 4
n -t 19.514856 -s 63 -S UP -v circle -c blue -x 130.3905 -y 398.3933 -z 4
n -t 19.770462 -s 58 -S UP -v circle -c blue -x 177.49474 -y 74.85487 -z 4
n -t 20.701406 -s 13 -S UP -v circle -c blue -x 316.56128 -y 192.06873 -z 4
n -t 20.807549 -s 83 -S UP -v circle -c blue -x 412.9377 -y 17.144958 -z 4
n -t 21.623823 -s 78 -S UP -v circle -c blue -x 67.95771 -y 418.13113 -z 4
n -t 22.152288 -s 93 -S UP -v circle -c blue -x 296.36813 -y 419.95044 -z 4
n -t 22.607235 -s 35 -S UP -v circle -c blue -x 109.51053 -y 395.63113 -z 4
n -t 22.663658 -s 5 -S UP -v circle -c red -x 237.44324 -y 429.64536 -z 4
n -t 22.83688 -s 68 -S UP -v circle -c blue -x 422.26395 -y 82.4173 -z 4
n -t 23.796598 -s 9 -S UP -v circle -c blue -x 210.08923 -y 76.14779 -z 4
n -t 23.994867 -s 64 -S UP -v circle -c blue -x 340.94318 -y 401.60254 -z 4
n -t 24.134886 -s 60 -S UP -v circle -c blue -x 388.66068 -y 463.5392 -z 4
n -t 24.952145 -s 97 -S UP -v circle -c blue -x 256.37488 -y 38.688484 -z 4
n -t 24.982882 -s 18 -S UP -v circle -c blue -x 452.1447 -y 208.72177 -z 4
n -t 26.169498 -s 27 -S UP -v circle -c blue -x 481.35657 -y 140.14883 -z 4
n -t 27.145939 -s 57 -S UP -v circle -c blue -x 158.31343 -y 316.8735 -z 4
n -t 27.17494 -s 80 -S UP -v circle -c blue -x 480.19385 -y 243.28406 -z 4
n -t 27.176992 -s 72 -S UP -v circle -c blue -x 491.38123 -y 397.9424 -z 4
n -t 27.406622 -s 26 -S UP -v circle -c blue -x 204.56493 -y 143.08191 -z 4
n -t 27.507244 -s 39 -S UP -v circle -c blue -x 144.68875 -y 269.81442 -z 4
n -t 27.511051 -s 46 -S UP -v circle -c blue -x 310.7982 -y 451.2638 -z 4
n -t 28.601671 -s 95 -S UP -v circle -c blue -x 316.9696 -y 54.18811 -z 4
n -t 28.642027 -s 50 -S UP -v circle -c blue -x 172.92566 -y 60.095062 -z 4
n -t 28.752842 -s 23 -S UP -v circle -c blue -x 178.29208 -y 258.21646 -z 4
n -t 29.046858 -s 82 -S UP -v circle -c blue -x 489.88477 -y 443.8192 -z 4
n -t 29.327005 -s 97 -S UP -v circle -c blue -x 196.29602 -y 70.111755 -z 4
n -t 29.454748 -s 81 -S UP -v circle -c blue -x 83.06755 -y 190.13248 -z 4
n -t 29.696062 -s 75 -S UP -v circle -c blue -x 52.653137 -y 441.1567 -z 4
n -t 30.149775 -s 56 -S UP -v circle -c blue -x 449.6797 -y 271.38208 -z 4
n -t 30.57856 -s 61 -S UP -v circle -c blue -x 313.70526 -y 236.7841 -z 4
n -t 30.604816 -s 58 -S UP -v circle -c blue -x 187.36688 -y 175.37308 -z 4
n -t 30.972797 -s 6 -S UP -v circle -c red -x 178.89854 -y 458.10806 -z 4
n -t 32.201458 -s 22 -S UP -v circle -c blue -x 57.958008 -y 299.34222 -z 4
n -t 33.482273 -s 89 -S UP -v circle -c blue -x 168.32831 -y 446.6009 -z 4
n -t 33.830383 -s 100 -S UP -v circle -c blue -x 188.89052 -y 365.5304 -z 4
n -t 34.70715 -s 33 -S UP -v circle -c blue -x 168.81023 -y 89.64749 -z 4
n -t 34.977383 -s 49 -S UP -v circle -c blue -x 293.45367 -y 55.35608 -z 4
n -t 35.709545 -s 9 -S UP -v circle -c blue -x 143.6416 -y 244.98346 -z 4
n -t 36.49512 -s 54 -S UP -v circle -c blue -x 417.49512 -y 253.85307 -z 4
n -t 36.796932 -s 72 -S UP -v circle -c blue -x 460.1748 -y 254.36078 -z 4
n -t 36.835663 -s 70 -S UP -v circle -c blue -x 102.15196 -y 75.92932 -z 4
n -t 37.396328 -s 53 -S UP -v circle -c blue -x 494.11035 -y 368.98703 -z 4
n -t 37.569214 -s 4 -S UP -v circle -c red -x 404.65524 -y 183.25604 -z 4
n -t 37.76295 -s 82 -S UP -v circle -c blue -x 413.17862 -y 382.24115 -z 4
n -t 37.871178 -s 35 -S UP -v circle -c blue -x 338.66772 -y 342.51874 -z 4
n -t 38.11204 -s 32 -S UP -v circle -c blue -x 102.77399 -y 424.18442 -z 4
n -t 38.655422 -s 31 -S UP -v circle -c blue -x 447.50793 -y 19.190735 -z 4
n -t 39.21657 -s 65 -S UP -v circle -c blue -x 309.6053 -y 329.81976 -z 4
n -t 39.728188 -s 27 -S UP -v circle -c blue -x 460.9025 -y 185.42767 -z 4
n -t 39.84105 -s 61 -S UP -v circle -c blue -x 152.19608 -y 194.77075 -z 4
n -t 39.898014 -s 42 -S UP -v circle -c blue -x 395.20328 -y 213.14229 -z 4
n -t 40.07294 -s 17 -S UP -v circle -c blue -x 122.68211 -y 442.38712 -z 4
n -t 40.649456 -s 19 -S UP -v circle -c blue -x 484.69995 -y 480.6579 -z 4
n -t 40.650486 -s 73 -S UP -v circle -c blue -x 32.690094 -y 194.77188 -z 4
n -t 41.32645 -s 12 -S UP -v circle -c blue -x 467.1164 -y 32.958107 -z 4
n -t 41.704334 -s 60 -S UP -v circle -c blue -x 478.1011 -y 251.87811 -z 4
n -t 41.75205 -s 34 -S UP -v circle -c blue -x 322.09662 -y 236.5692 -z 4
n -t 42.851913 -s 54 -S UP -v circle -c blue -x 462.83118 -y 344.0937 -z 4
n -t 42.936073 -s 38 -S UP -v circle -c blue -x 443.09686 -y 271.2968 -z 4
n -t 43.192688 -s 13 -S UP -v circle -c blue -x 266.59235 -y 83.438225 -z 4
n -t 43.315964 -s 4 -S UP -v circle -c red -x 339.9545 -y 238.30077 -z 4
n -t 44.035267 -s 99 -S UP -v circle -c blue -x 252.35786 -y 107.23107 -z 4
n -t 44.035378 -s 39 -S UP -v circle -c blue -x 347.0762 -y 182.474 -z 4
n -t 44.891552 -s 37 -S UP -v circle -c blue -x 64.10376 -y 129.01712 -z 4
n -t 45.04912 -s 44 -S UP -v circle -c blue -x 173.19388 -y 398.85434 -z 4
n -t 45.7701 -s 2 -S UP -v circle -c red -x 483.89676 -y 432.4777 -z 4
n -t 46.282726 -s 6 -S UP -v circle -c red -x 222.15259 -y 310.34003 -z 4
n -t 47.20705 -s 64 -S UP -v circle -c blue -x 147.5785 -y 109.64801 -z 4
n -t 47.656956 -s 56 -S UP -v circle -c blue -x 341.70032 -y 137.27783 -z 4
n -t 48.087303 -s 60 -S UP -v circle -c blue -x 455.61276 -y 369.66507 -z 4
n -t 48.225048 -s 85 -S UP -v circle -c blue -x 111.15671 -y 173.06743 -z 4
n -t 48.70964 -s 98 -S UP -v circle -c blue -x 156.57562 -y 101.45328 -z 4
n -t 48.87765 -s 73 -S UP -v circle -c blue -x 18.762722 -y 159.9415 -z 4
n -t 49.083652 -s 26 -S UP -v circle -c blue -x 233.80855 -y 103.4292 -z 4
n -t 49.170876 -s 95 -S UP -v circle -c blue -x 428.06775 -y 261.4875 -z 4
n -t 49.703606 -s 67 -S UP -v circle -c blue -x 228.01845 -y 231.0932 -z 4
n -t 49.77195 -s 29 -S UP -v circle -c blue -x 123.18067 -y 451.24048 -z 4
n -t 49.92197 -s 32 -S UP -v circle -c blue -x 49.668087 -y 354.18185 -z 4
n -t 51.010273 -s 70 -S UP -v circle -c blue -x 337.37573 -y 93.040695 -z 4
n -t 51.30695 -s 34 -S UP -v circle -c blue -x 158.0514 -y 193.84065 -z 4
n -t 51.98973 -s 30 -S UP -v circle -c blue -x 171.36804 -y 198.73389 -z 4
n -t 52.720486 -s 40 -S UP -v circle -c blue -x 200.06657 -y 486.85632 -z 4
n -t 53.158867 -s 75 -S UP -v circle -c blue -x 101.739586 -y 293.1395 -z 4
n -t 53.37155 -s 35 -S UP -v circle -c blue -x 229.38914 -y 324.38275 -z 4
n -t 53.82097 -s 55 -S UP -v circle -c blue -x 275.7385 -y 434.24533 -z 4
n -t 53.84731 -s 96 -S UP -v circle -c blue -x 413.8725 -y 105.71701 -z 4
n -t 53.85024 -s 58 -S UP -v circle -c blue -x 370.15695 -y 446.74802 -z 4
n -t 55.13324 -s 8 -S UP -v circle -c red -x 340.22452 -y 174.1949 -z 4
n -t 55.143925 -s 10 -S UP -v circle -c blue -x 86.79059 -y 217.82405 -z 4
n -t 55.225742 -s 30 -S UP -v circle -c blue -x 174.77632 -y 254.7829 -z 4
n -t 56.45939 -s 47 -S UP -v circle -c blue -x 495.7182 -y 297.4391 -z 4
n -t 57.47 -s 6 -S UP -v circle -c red -x 219.15582 -y 111.9953 -z 4
n -t 57.874195 -s 97 -S UP -v circle -c blue -x 470.3525 -y 37.839718 -z 4
n -t 58.352016 -s 49 -S UP -v circle -c blue -x 92.40808 -y 398.77475 -z 4
n -t 58.737545 -s 70 -S UP -v circle -c blue -x 294.6278 -y 240.16725 -z 4
n -t 58.826244 -s 65 -S UP -v circle -c blue -x 267.1727 -y 127.20207 -z 4
n -t 59.08721 -s 90 -S UP -v circle -c blue -x 298.82288 -y 245.9041 -z 4
n -t 59.511143 -s 23 -S UP -v circle -c blue -x 132.21062 -y 38.323074 -z 4
n -t 60.378716 -s 67 -S UP -v circle -c blue -x 149.10223 -y 162.6404 -z 4
n -t 60.71775 -s 93 -S UP -v circle -c blue -x 158.40889 -y 271.25238 -z 4
n -t 60.7257 -s 92 -S UP -v circle -c blue -x 254.54572 -y 225.87042 -z 4
n -t 62.04087 -s 9 -S UP -v circle -c blue -x 260.0846 -y 196.72902 -z 4
n -t 62.32869 -s 49 -S UP -v circle -c blue -x 43.74575 -y 361.75238 -z 4
n -t 63.20713 -s 82 -S UP -v circle -c blue -x 230.5596 -y 3.7953491 -z 4
n -t 63.63114 -s 47 -S UP -v circle -c blue -x 362.3773 -y 346.73578 -z 4
n -t 63.66491 -s 2 -S UP -v circle -c red -x 402.63278 -y 243.2213 -z 4
n -t 64.496765 -s 68 -S UP -v circle -c blue -x 68.70532 -y 343.16376 -z 4
n -t 64.50667 -s 19 -S UP -v circle -c blue -x 326.22095 -y 219.63867 -z 4
n -t 64.85944 -s 17 -S UP -v circle -c blue -x 363.08792 -y 67.301575 -z 4
n -t 65.52892 -s 95 -S UP -v circle -c blue -x 275.96768 -y 441.85025 -z 4
n -t 67.21562 -s 93 -S UP -v circle -c blue -x 231.95398 -y 207.56447 -z 4
n -t 68.167946 -s 89 -S UP -v circle -c blue -x 474.2685 -y 320.86844 -z 4
n -t 68.41273 -s 10 -S UP -v circle -c blue -x 235.17499 -y 202.68568 -z 4
n -t 68.783325 -s 4 -S UP -v circle -c red -x 118.05534 -y 342.68164 -z 4
n -t 69.22865 -s 82 -S UP -v circle -c blue -x 326.2349 -y 17.26072 -z 4
n -t 69.31171 -s 61 -S UP -v circle -c blue -x 335.78387 -y 454.8676 -z 4
n -t 69.77466 -s 65 -S UP -v circle -c blue -x 70.17854 -y 94.76073 -z 4
n -t 70.01116 -s 69 -S UP -v circle -c blue -x 97.33177 -y 411.88397 -z 4
n -t 70.17447 -s 26 -S UP -v circle -c blue -x 405.43433 -y 455.42 -z 4
n -t 72.06287 -s 56 -S UP -v circle -c blue -x 51.198273 -y 258.34384 -z 4
n -t 72.06619 -s 15 -S UP -v circle -c blue -x 316.5131 -y 66.88977 -z 4
n -t 72.26868 -s 5 -S UP -v circle -c red -x 478.77988 -y 63.702484 -z 4
n -t 73.86952 -s 53 -S UP -v circle -c blue -x 323.86377 -y 100.56677 -z 4
n -t 73.93654 -s 91 -S UP -v circle -c blue -x 9.620102 -y 140.73174 -z 4
n -t 74.018456 -s 48 -S UP -v circle -c blue -x 255.6675 -y 190.49728 -z 4
n -t 74.44802 -s 21 -S UP -v circle -c blue -x 323.4617 -y 278.36273 -z 4
n -t 74.44916 -s 70 -S UP -v circle -c blue -x 198.38797 -y 201.62807 -z 4
n -t 74.571205 -s 29 -S UP -v circle -c blue -x 390.10425 -y 224.2786 -z 4
n -t 75.07296 -s 12 -S UP -v circle -c blue -x 10.453186 -y 117.655785 -z 4
n -t 75.0734 -s 92 -S UP -v circle -c blue -x 114.197525 -y 109.40369 -z 4
n -t 75.32243 -s 44 -S UP -v circle -c blue -x 191.68242 -y 219.53568 -z 4
n -t 75.834305 -s 73 -S UP -v circle -c blue -x 310.26428 -y 391.9801 -z 4
n -t 76.13996 -s 42 -S UP -v circle -c blue -x 212.31943 -y 342.29294 -z 4
n -t 76.67026 -s 91 -S UP -v circle -c blue -x 46.15157 -y 126.60931 -z 4
n -t 76.73301 -s 35 -S UP -v circle -c blue -x 136.71826 -y 4.682068 -z 4
n -t 76.79663 -s 14 -S UP -v circle -c blue -x 343.8075 -y 486.39813 -z 4
n -t 77.19319 -s 9 -S UP -v circle -c blue -x 356.61057 -y 93.453636 -z 4
n -t 77.46172 -s 1 -S UP -v circle -c red -x 163.43886 -y 206.7676 -z 4
n -t 77.829475 -s 97 -S UP -v circle -c blue -x 161.07877 -y 153.68857 -z 4
n -t 77.93206 -s 12 -S UP -v circle -c blue -x 16.79622 -y 87.93437 -z 4
n -t 78.08706 -s 8 -S UP -v circle -c red -x 21.500916 -y 92.68604 -z 4
n -t 78.14664 -s 67 -S UP -v circle -c blue -x 447.7701 -y 33.23741 -z 4
n -t 78.53383 -s 37 -S UP -v circle -c blue -x 479.33902 -y 70.960884 -z 4
n -t 78.80144 -s 17 -S UP -v circle -c blue -x 456.97653 -y 247.55025 -z 4
n -t 78.99027 -s 39 -S UP -v circle -c blue -x 391.45035 -y 419.7807 -z 4
n -t 79.43086 -s 83 -S UP -v circle -c blue -x 287.24823 -y 387.5474 -z 4
n -t 79.54713 -s 21 -S UP -v circle -c blue -x 375.7321 -y 302.83014 -z 4
n -t 80.12861 -s 61 -S UP -v circle -c blue -x 183.54686 -y 454.96033 -z 4
n -t 80.41174 -s 19 -S UP -v circle -c blue -x 416.09915 -y 151.09682 -z 4
n -t 80.441574 -s 85 -S UP -v circle -c blue -x 273.7256 -y 86.577896 -z 4
n -t 81.33313 -s 10 -S UP -v circle -c blue -x 366.96942 -y 135.2114 -z 4
n -t 81.58981 -s 78 -S UP -v circle -c blue -x 178.31438 -y 343.9981 -z 4
n -t 81.78652 -s 61 -S UP -v circle -c blue -x 194.74413 -y 428.77924 -z 4
n -t 82.01624 -s 86 -S UP -v circle -c blue -x 389.7077 -y 180.63284 -z 4
n -t 82.28283 -s 83 -S UP -v circle -c blue -x 340.17294 -y 384.22073 -z 4
n -t 82.51801 -s 75 -S UP -v circle -c blue -x 288.83542 -y 132.24583 -z 4
n -t 83.33596 -s 89 -S UP -v circle -c blue -x 391.51532 -y 116.02191 -z 4
n -t 84.111145 -s 55 -S UP -v circle -c blue -x 220.57333 -y 45.15576 -z 4
n -t 84.17648 -s 56 -S UP -v circle -c blue -x 159.01039 -y 472.85217 -z 4
n -t 84.48094 -s 100 -S UP -v circle -c blue -x 222.29605 -y 157.26486 -z 4
n -t 84.81385 -s 58 -S UP -v circle -c blue -x 211.92949 -y 495.65298 -z 4
n -t 86.75768 -s 51 -S UP -v circle -c blue -x 439.32376 -y 434.97278 -z 4
n -t 87.07745 -s 28 -S UP -v circle -c blue -x 433.98706 -y 328.80045 -z 4
n -t 87.492836 -s 20 -S UP -v circle -c blue -x 280.2459 -y 493.3247 -z 4
n -t 87.691444 -s 14 -S UP -v circle -c blue -x 171.00243 -y 421.0439 -z 4
n -t 88.075935 -s 62 -S UP -v circle -c blue -x 418.8471 -y 442.34818 -z 4
n -t 88.3999 -s 38 -S UP -v circle -c blue -x 22.483124 -y 10.677185 -z 4
n -t 88.6879 -s 81 -S UP -v circle -c blue -x 359.21716 -y 428.9073 -z 4
n -t 88.72722 -s 30 -S UP -v circle -c blue -x 273.26056 -y 115.08304 -z 4
n -t 88.98887 -s 3 -S UP -v circle -c red -x 191.90189 -y 479.9766 -z 4
n -t 89.418564 -s 39 -S UP -v circle -c blue -x 446.52417 -y 270.2588 -z 4
n -t 89.488396 -s 59 -S UP -v circle -c blue -x 348.85193 -y 74.50073 -z 4
n -t 89.796165 -s 29 -S UP -v circle -c blue -x 253.83224 -y 114.480354 -z 4
n -t 90.089424 -s 83 -S UP -v circle -c blue -x 350.07895 -y 342.92316 -z 4
n -t 90.09304 -s 15 -S UP -v circle -c blue -x 480.29303 -y 380.02307 -z 4