# Trace file generated by Jist/Swans Version 1.0.6. at Fri Jul 26 20:30:50 BRT 2013
V -t * -v 1.0a5 -a 0
W -t * -x 410 -y 410
A -t * -n 1 -p 0 -o 0xffffffff -c 31 -a 1
A -t * -h 1 -m 2147483647 -s 0
n -t 0.0 -s 1 -S UP -v circle -c red -x 436.6886 -y 436.39368 -z 4
n -t 0.0 -s 2 -S UP -v circle -c red -x 58.225006 -y 140.21921 -z 4
n -t 0.0 -s 3 -S UP -v circle -c red -x 175.49652 -y 224.50638 -z 4
n -t 0.0 -s 4 -S UP -v circle -c red -x 179.36295 -y 66.500786 -z 4
n -t 0.0 -s 5 -S UP -v circle -c red -x 118.816765 -y 212.44109 -z 4
n -t 0.0 -s 6 -S UP -v circle -c red -x 251.6296 -y 432.8734 -z 4
n -t 0.0 -s 7 -S UP -v circle -c red -x 366.46582 -y 40.68878 -z 4
n -t 0.0 -s 8 -S UP -v circle -c red -x 192.83089 -y 409.35373 -z 4
n -t 0.0 -s 9 -S UP -v circle -c blue -x 172.4906 -y 367.13763 -z 4
n -t 0.0 -s 10 -S UP -v circle -c blue -x 33.381226 -y 410.81805 -z 4
n -t 0.0 -s 11 -S UP -v circle -c blue -x 109.10991 -y 29.702902 -z 4
n -t 0.0 -s 12 -S UP -v circle -c blue -x 181.74084 -y 496.62143 -z 4
n -t 0.0 -s 13 -S UP -v circle -c blue -x 499.23462 -y 108.190895 -z 4
n -t 0.0 -s 14 -S UP -v circle -c blue -x 0.4350543 -y 339.24576 -z 4
n -t 0.0 -s 15 -S UP -v circle -c blue -x 471.22998 -y 432.85236 -z 4
n -t 0.0 -s 16 -S UP -v circle -c blue -x 453.5106 -y 478.15634 -z 4
n -t 0.0 -s 17 -S UP -v circle -c blue -x 66.61054 -y 407.96512 -z 4
n -t 0.0 -s 18 -S UP -v circle -c blue -x 366.63754 -y 237.867 -z 4
n -t 0.0 -s 19 -S UP -v circle -c blue -x 468.47635 -y 436.26324 -z 4
n -t 0.0 -s 20 -S UP -v circle -c blue -x 258.8965 -y 259.4149 -z 4
n -t 0.0 -s 21 -S UP -v circle -c blue -x 444.31793 -y 312.93774 -z 4
n -t 0.0 -s 22 -S UP -v circle -c blue -x 15.002131 -y 51.02691 -z 4
n -t 0.0 -s 23 -S UP -v circle -c blue -x 472.7663 -y 251.69269 -z 4
n -t 0.0 -s 24 -S UP -v circle -c blue -x 68.0055 -y 324.79495 -z 4
n -t 0.0 -s 25 -S UP -v circle -c blue -x 469.17886 -y 356.9141 -z 4
n -t 0.0 -s 26 -S UP -v circle -c blue -x 25.414795 -y 333.7855 -z 4
n -t 0.0 -s 27 -S UP -v circle -c blue -x 141.6823 -y 238.93875 -z 4
n -t 0.0 -s 28 -S UP -v circle -c blue -x 261.5025 -y 429.39154 -z 4
n -t 0.0 -s 29 -S UP -v circle -c blue -x 407.3077 -y 308.7897 -z 4
n -t 0.0 -s 30 -S UP -v circle -c blue -x 200.97855 -y 7.137924 -z 4
n -t 0.0 -s 31 -S UP -v circle -c blue -x 219.8197 -y 286.23743 -z 4
n -t 0.0 -s 32 -S UP -v circle -c blue -x 65.15437 -y 324.89655 -z 4
n -t 0.0 -s 33 -S UP -v circle -c blue -x 107.255936 -y 413.87192 -z 4
n -t 0.0 -s 34 -S UP -v circle -c blue -x 42.474358 -y 448.93027 -z 4
n -t 0.0 -s 35 -S UP -v circle -c blue -x 71.350876 -y 319.8156 -z 4
n -t 0.0 -s 36 -S UP -v circle -c blue -x 177.43233 -y 187.80927 -z 4
n -t 0.0 -s 37 -S UP -v circle -c blue -x 154.03464 -y 294.1204 -z 4
n -t 0.0 -s 38 -S UP -v circle -c blue -x 62.31183 -y 103.53073 -z 4
n -t 0.0 -s 39 -S UP -v circle -c blue -x 452.00046 -y 296.6813 -z 4
n -t 0.0 -s 40 -S UP -v circle -c blue -x 427.10205 -y 373.69186 -z 4
n -t 0.0 -s 41 -S UP -v circle -c blue -x 440.65625 -y 257.13867 -z 4
n -t 0.0 -s 42 -S UP -v circle -c blue -x 286.86136 -y 412.94522 -z 4
n -t 0.0 -s 43 -S UP -v circle -c blue -x 318.17615 -y 345.7659 -z 4
n -t 0.0 -s 44 -S UP -v circle -c blue -x 450.563 -y 29.893875 -z 4
n -t 0.0 -s 45 -S UP -v circle -c blue -x 371.19977 -y 426.3464 -z 4
n -t 0.0 -s 46 -S UP -v circle -c blue -x 269.2048 -y 194.81903 -z 4
n -t 0.0 -s 47 -S UP -v circle -c blue -x 401.17566 -y 361.6938 -z 4
n -t 0.0 -s 48 -S UP -v circle -c blue -x 297.1553 -y 460.98798 -z 4
n -t 0.0 -s 49 -S UP -v circle -c blue -x 97.39253 -y 345.48495 -z 4
n -t 0.0 -s 50 -S UP -v circle -c blue -x 423.11078 -y 118.6468 -z 4
n -t 0.0 -s 51 -S UP -v circle -c blue -x 345.19113 -y 322.74088 -z 4
n -t 0.0 -s 52 -S UP -v circle -c blue -x 54.73462 -y 456.099 -z 4
n -t 0.0 -s 53 -S UP -v circle -c blue -x 269.31442 -y 29.456556 -z 4
n -t 0.0 -s 54 -S UP -v circle -c blue -x 493.43555 -y 160.51555 -z 4
n -t 0.0 -s 55 -S UP -v circle -c blue -x 419.25818 -y 399.95163 -z 4
n -t 0.0 -s 56 -S UP -v circle -c blue -x 37.522404 -y 55.375725 -z 4
n -t 0.0 -s 57 -S UP -v circle -c blue -x 250.06876 -y 330.46948 -z 4
n -t 0.0 -s 58 -S UP -v circle -c blue -x 498.16962 -y 348.83527 -z 4
n -t 0.0 -s 59 -S UP -v circle -c blue -x 165.3473 -y 47.921745 -z 4
n -t 0.0 -s 60 -S UP -v circle -c blue -x 293.57098 -y 454.04596 -z 4
n -t 0.0 -s 61 -S UP -v circle -c blue -x 104.128006 -y 463.55972 -z 4
n -t 0.0 -s 62 -S UP -v circle -c blue -x 12.995124 -y 248.7652 -z 4
n -t 0.0 -s 63 -S UP -v circle -c blue -x 337.47153 -y 219.41185 -z 4
n -t 0.0 -s 64 -S UP -v circle -c blue -x 170.14018 -y 416.81192 -z 4
n -t 0.0 -s 65 -S UP -v circle -c blue -x 419.54953 -y 88.78267 -z 4
n -t 0.0 -s 66 -S UP -v circle -c blue -x 220.48831 -y 471.42264 -z 4
n -t 0.0 -s 67 -S UP -v circle -c blue -x 119.98433 -y 125.743774 -z 4
n -t 0.0 -s 68 -S UP -v circle -c blue -x 421.86368 -y 202.784 -z 4
n -t 0.0 -s 69 -S UP -v circle -c blue -x 165.37126 -y 478.71515 -z 4
n -t 0.0 -s 70 -S UP -v circle -c blue -x 212.99588 -y 35.465477 -z 4
n -t 0.0 -s 71 -S UP -v circle -c blue -x 387.16867 -y 72.8409 -z 4
n -t 0.0 -s 72 -S UP -v circle -c blue -x 358.79105 -y 81.718025 -z 4
n -t 0.0 -s 73 -S UP -v circle -c blue -x 317.2343 -y 9.381175 -z 4
n -t 0.0 -s 74 -S UP -v circle -c blue -x 120.734245 -y 153.26797 -z 4
n -t 0.0 -s 75 -S UP -v circle -c blue -x 180.76747 -y 338.80923 -z 4
n -t 0.0 -s 76 -S UP -v circle -c blue -x 309.2229 -y 56.011944 -z 4
n -t 0.0 -s 77 -S UP -v circle -c blue -x 406.64343 -y 0.31274557 -z 4
n -t 0.0 -s 78 -S UP -v circle -c blue -x 234.80368 -y 461.66415 -z 4
n -t 0.0 -s 79 -S UP -v circle -c blue -x 137.28288 -y 323.1155 -z 4
n -t 0.0 -s 80 -S UP -v circle -c blue -x 215.71368 -y 389.73477 -z 4
n -t 0.0 -s 81 -S UP -v circle -c blue -x 462.26447 -y 295.17938 -z 4
n -t 0.0 -s 82 -S UP -v circle -c blue -x 408.58105 -y 368.11044 -z 4
n -t 0.0 -s 83 -S UP -v circle -c blue -x 292.67145 -y 289.7051 -z 4
n -t 0.0 -s 84 -S UP -v circle -c blue -x 491.6988 -y 485.90143 -z 4
n -t 0.0 -s 85 -S UP -v circle -c blue -x 15.271097 -y 418.26743 -z 4
n -t 0.0 -s 86 -S UP -v circle -c blue -x 150.3472 -y 37.12544 -z 4
n -t 0.0 -s 87 -S UP -v circle -c blue -x 28.488844 -y 446.81085 -z 4
n -t 0.0 -s 88 -S UP -v circle -c blue -x 340.9101 -y 46.274246 -z 4
n -t 0.0 -s 89 -S UP -v circle -c blue -x 434.99124 -y 164.0636 -z 4
n -t 0.0 -s 90 -S UP -v circle -c blue -x 465.0262 -y 98.991035 -z 4
n -t 0.0 -s 91 -S UP -v circle -c blue -x 400.58832 -y 354.74078 -z 4
n -t 0.0 -s 92 -S UP -v circle -c blue -x 82.07509 -y 294.1627 -z 4
n -t 0.0 -s 93 -S UP -v circle -c blue -x 345.96744 -y 77.29414 -z 4
n -t 0.0 -s 94 -S UP -v circle -c blue -x 163.55733 -y 422.95505 -z 4
n -t 0.0 -s 95 -S UP -v circle -c blue -x 209.15219 -y 229.59172 -z 4
n -t 0.0 -s 96 -S UP -v circle -c blue -x 127.35248 -y 340.00958 -z 4
n -t 0.0 -s 97 -S UP -v circle -c blue -x 253.03296 -y 458.99405 -z 4
n -t 0.0 -s 98 -S UP -v circle -c blue -x 34.69038 -y 260.5534 -z 4
n -t 0.0 -s 99 -S UP -v circle -c blue -x 427.138 -y 115.621506 -z 4
n -t 0.0 -s 100 -S UP -v circle -c blue -x 134.53963 -y 21.993458 -z 4
n -t 0.0 -s 101 -S UP -v circle -c blue -x 267.11945 -y 290.52856 -z 4
n -t 0.0 -s 102 -S UP -v circle -c blue -x 465.88974 -y 231.17422 -z 4
n -t 0.0 -s 103 -S UP -v circle -c blue -x 3.1450987 -y 131.9224 -z 4
n -t 0.0 -s 104 -S UP -v circle -c blue -x 490.29266 -y 259.44305 -z 4
n -t 0.0 -s 105 -S UP -v circle -c blue -x 481.24945 -y 301.96097 -z 4
n -t 0.0 -s 106 -S UP -v circle -c blue -x 307.55164 -y 491.61447 -z 4
n -t 0.0 -s 107 -S UP -v circle -c blue -x 94.259056 -y 60.073463 -z 4
n -t 0.0 -s 108 -S UP -v circle -c blue -x 184.43396 -y 115.551384 -z 4
n -t 0.0 -s 109 -S UP -v circle -c blue -x 93.5314 -y 323.75983 -z 4
n -t 0.0 -s 110 -S UP -v circle -c blue -x 497.8839 -y 4.1345954 -z 4
n -t 0.0 -s 111 -S UP -v circle -c blue -x 464.60706 -y 428.61047 -z 4
n -t 0.0 -s 112 -S UP -v circle -c blue -x 303.87762 -y 377.69315 -z 4
n -t 0.0 -s 113 -S UP -v circle -c blue -x 311.96167 -y 51.559837 -z 4
n -t 0.0 -s 114 -S UP -v circle -c blue -x 204.56746 -y 93.39523 -z 4
n -t 0.0 -s 115 -S UP -v circle -c blue -x 106.158226 -y 467.4356 -z 4
n -t 0.0 -s 116 -S UP -v circle -c blue -x 308.7854 -y 28.590918 -z 4
n -t 0.0 -s 117 -S UP -v circle -c blue -x 404.45294 -y 422.53973 -z 4
n -t 0.0 -s 118 -S UP -v circle -c blue -x 493.71173 -y 461.663 -z 4
n -t 0.0 -s 119 -S UP -v circle -c blue -x 99.72784 -y 350.701 -z 4
n -t 0.0 -s 120 -S UP -v circle -c blue -x 453.27402 -y 499.64133 -z 4
n -t 0.0 -s 121 -S UP -v circle -c blue -x 476.7451 -y 448.9517 -z 4
n -t 0.0 -s 122 -S UP -v circle -c blue -x 306.6382 -y 13.803064 -z 4
n -t 0.0 -s 123 -S UP -v circle -c blue -x 336.19684 -y 20.234377 -z 4
n -t 0.0 -s 124 -S UP -v circle -c blue -x 178.32468 -y 68.905 -z 4
n -t 0.0 -s 125 -S UP -v circle -c blue -x 170.7195 -y 79.435646 -z 4
n -t 0.0 -s 126 -S UP -v circle -c blue -x 310.6685 -y 228.82828 -z 4
n -t 0.0 -s 127 -S UP -v circle -c blue -x 460.6316 -y 83.23547 -z 4
n -t 0.0 -s 128 -S UP -v circle -c blue -x 35.504818 -y 190.57881 -z 4
n -t 0.0 -s 129 -S UP -v circle -c blue -x 476.12442 -y 461.97418 -z 4
n -t 0.0 -s 130 -S UP -v circle -c blue -x 491.36417 -y 403.15515 -z 4
n -t 0.0 -s 131 -S UP -v circle -c blue -x 285.29193 -y 307.7567 -z 4
n -t 0.0 -s 132 -S UP -v circle -c blue -x 196.69238 -y 420.21237 -z 4
n -t 0.0 -s 133 -S UP -v circle -c blue -x 239.83362 -y 363.69095 -z 4
n -t 0.0 -s 134 -S UP -v circle -c blue -x 170.55986 -y 382.21954 -z 4
n -t 0.0 -s 135 -S UP -v circle -c blue -x 441.4396 -y 97.39265 -z 4
n -t 0.0 -s 136 -S UP -v circle -c blue -x 367.20123 -y 430.49466 -z 4
n -t 0.0 -s 137 -S UP -v circle -c blue -x 238.49821 -y 462.1687 -z 4
n -t 0.0 -s 138 -S UP -v circle -c blue -x 467.0504 -y 391.7346 -z 4
n -t 0.0 -s 139 -S UP -v circle -c blue -x 204.41052 -y 12.63681 -z 4
n -t 0.0 -s 140 -S UP -v circle -c blue -x 447.53726 -y 396.1311 -z 4
n -t 0.0 -s 141 -S UP -v circle -c blue -x 352.81473 -y 260.56036 -z 4
n -t 0.0 -s 142 -S UP -v circle -c blue -x 64.93765 -y 277.6274 -z 4
n -t 0.0 -s 143 -S UP -v circle -c blue -x 231.59062 -y 420.52542 -z 4
n -t 0.0 -s 144 -S UP -v circle -c blue -x 82.4731 -y 263.14478 -z 4
n -t 0.0 -s 145 -S UP -v circle -c blue -x 444.6213 -y 494.4896 -z 4
n -t 0.0 -s 146 -S UP -v circle -c blue -x 18.411934 -y 364.56915 -z 4
n -t 0.0 -s 147 -S UP -v circle -c blue -x 398.73492 -y 196.47249 -z 4
n -t 0.0 -s 148 -S UP -v circle -c blue -x 295.20947 -y 107.87889 -z 4
n -t 0.0 -s 149 -S UP -v circle -c blue -x 491.64636 -y 92.58437 -z 4
n -t 0.0 -s 150 -S UP -v circle -c blue -x 201.1376 -y 247.01813 -z 4
n -t 0.0 -s 1 -S UP -v circle -c red -x 436.6886 -y 436.39368 -z 4
n -t 0.0 -s 3 -S UP -v circle -c red -x 175.49652 -y 224.50638 -z 4
n -t 0.0 -s 7 -S UP -v circle -c red -x 366.46582 -y 40.68878 -z 4
n -t 0.0 -s 15 -S UP -v circle -c blue -x 471.22998 -y 432.85236 -z 4
n -t 0.0 -s 31 -S UP -v circle -c blue -x 219.8197 -y 286.23743 -z 4
n -t 0.0 -s 63 -S UP -v circle -c blue -x 337.47153 -y 219.41185 -z 4
n -t 0.0 -s 127 -S UP -v circle -c blue -x 460.6316 -y 83.23547 -z 4
n -t 0.0 -s 128 -S UP -v circle -c blue -x 35.504818 -y 190.57881 -z 4
n -t 0.0 -s 64 -S UP -v circle -c blue -x 170.14018 -y 416.81192 -z 4
n -t 0.0 -s 129 -S UP -v circle -c blue -x 476.12442 -y 461.97418 -z 4
n -t 0.0 -s 130 -S UP -v circle -c blue -x 491.36417 -y 403.15515 -z 4
n -t 0.0 -s 32 -S UP -v circle -c blue -x 65.15437 -y 324.89655 -z 4
n -t 0.0 -s 65 -S UP -v circle -c blue -x 419.54953 -y 88.78267 -z 4
n -t 0.0 -s 131 -S UP -v circle -c blue -x 285.29193 -y 307.7567 -z 4
n -t 0.0 -s 132 -S UP -v circle -c blue -x 196.69238 -y 420.21237 -z 4
n -t 0.0 -s 66 -S UP -v circle -c blue -x 220.48831 -y 471.42264 -z 4
n -t 0.0 -s 133 -S UP -v circle -c blue -x 239.83362 -y 363.69095 -z 4
n -t 0.0 -s 134 -S UP -v circle -c blue -x 170.55986 -y 382.21954 -z 4
n -t 0.0 -s 16 -S UP -v circle -c blue -x 453.5106 -y 478.15634 -z 4
n -t 0.0 -s 33 -S UP -v circle -c blue -x 107.255936 -y 413.87192 -z 4
n -t 0.0 -s 67 -S UP -v circle -c blue -x 119.98433 -y 125.743774 -z 4
n -t 0.0 -s 135 -S UP -v circle -c blue -x 441.4396 -y 97.39265 -z 4
n -t 0.0 -s 136 -S UP -v circle -c blue -x 367.20123 -y 430.49466 -z 4
n -t 0.0 -s 68 -S UP -v circle -c blue -x 421.86368 -y 202.784 -z 4
n -t 0.0 -s 137 -S UP -v circle -c blue -x 238.49821 -y 462.1687 -z 4
n -t 0.0 -s 138 -S UP -v circle -c blue -x 467.0504 -y 391.7346 -z 4
n -t 0.0 -s 34 -S UP -v circle -c blue -x 42.474358 -y 448.93027 -z 4
n -t 0.0 -s 69 -S UP -v circle -c blue -x 165.37126 -y 478.71515 -z 4
n -t 0.0 -s 139 -S UP -v circle -c blue -x 204.41052 -y 12.63681 -z 4
n -t 0.0 -s 140 -S UP -v circle -c blue -x 447.53726 -y 396.1311 -z 4
n -t 0.0 -s 70 -S UP -v circle -c blue -x 212.99588 -y 35.465477 -z 4
n -t 0.0 -s 141 -S UP -v circle -c blue -x 352.81473 -y 260.56036 -z 4
n -t 0.0 -s 142 -S UP -v circle -c blue -x 64.93765 -y 277.6274 -z 4
n -t 0.0 -s 8 -S UP -v circle -c red -x 192.83089 -y 409.35373 -z 4
n -t 0.0 -s 17 -S UP -v circle -c blue -x 66.61054 -y 407.96512 -z 4
n -t 0.0 -s 35 -S UP -v circle -c blue -x 71.350876 -y 319.8156 -z 4
n -t 0.0 -s 71 -S UP -v circle -c blue -x 387.16867 -y 72.8409 -z 4
n -t 0.0 -s 143 -S UP -v circle -c blue -x 231.59062 -y 420.52542 -z 4
n -t 0.0 -s 144 -S UP -v circle -c blue -x 82.4731 -y 263.14478 -z 4
n -t 0.0 -s 72 -S UP -v circle -c blue -x 358.79105 -y 81.718025 -z 4
n -t 0.0 -s 145 -S UP -v circle -c blue -x 444.6213 -y 494.4896 -z 4
n -t 0.0 -s 146 -S UP -v circle -c blue -x 18.411934 -y 364.56915 -z 4
n -t 0.0 -s 36 -S UP -v circle -c blue -x 177.43233 -y 187.80927 -z 4
n -t 0.0 -s 73 -S UP -v circle -c blue -x 317.2343 -y 9.381175 -z 4
n -t 0.0 -s 147 -S UP -v circle -c blue -x 398.73492 -y 196.47249 -z 4
n -t 0.0 -s 148 -S UP -v circle -c blue -x 295.20947 -y 107.87889 -z 4
n -t 0.0 -s 74 -S UP -v circle -c blue -x 120.734245 -y 153.26797 -z 4
n -t 0.0 -s 149 -S UP -v circle -c blue -x 491.64636 -y 92.58437 -z 4
n -t 0.0 -s 150 -S UP -v circle -c blue -x 201.1376 -y 247.01813 -z 4
n -t 0.0 -s 18 -S UP -v circle -c blue -x 366.63754 -y 237.867 -z 4
n -t 0.0 -s 37 -S UP -v circle -c blue -x 154.03464 -y 294.1204 -z 4
n -t 0.0 -s 75 -S UP -v circle -c blue -x 180.76747 -y 338.80923 -z 4
n -t 0.0 -s 76 -S UP -v circle -c blue -x 309.2229 -y 56.011944 -z 4
n -t 0.0 -s 38 -S UP -v circle -c blue -x 62.31183 -y 103.53073 -z 4
n -t 0.0 -s 77 -S UP -v circle -c blue -x 406.64343 -y 0.31274557 -z 4
n -t 0.0 -s 78 -S UP -v circle -c blue -x 234.80368 -y 461.66415 -z 4
n -t 0.0 -s 4 -S UP -v circle -c red -x 179.36295 -y 66.500786 -z 4
n -t 0.0 -s 9 -S UP -v circle -c blue -x 172.4906 -y 367.13763 -z 4
n -t 0.0 -s 19 -S UP -v circle -c blue -x 468.47635 -y 436.26324 -z 4
n -t 0.0 -s 39 -S UP -v circle -c blue -x 452.00046 -y 296.6813 -z 4
n -t 0.0 -s 79 -S UP -v circle -c blue -x 137.28288 -y 323.1155 -z 4
n -t 0.0 -s 80 -S UP -v circle -c blue -x 215.71368 -y 389.73477 -z 4
n -t 0.0 -s 40 -S UP -v circle -c blue -x 427.10205 -y 373.69186 -z 4
n -t 0.0 -s 81 -S UP -v circle -c blue -x 462.26447 -y 295.17938 -z 4
n -t 0.0 -s 82 -S UP -v circle -c blue -x 408.58105 -y 368.11044 -z 4
n -t 0.0 -s 20 -S UP -v circle -c blue -x 258.8965 -y 259.4149 -z 4
n -t 0.0 -s 41 -S UP -v circle -c blue -x 440.65625 -y 257.13867 -z 4
n -t 0.0 -s 83 -S UP -v circle -c blue -x 292.67145 -y 289.7051 -z 4
n -t 0.0 -s 84 -S UP -v circle -c blue -x 491.6988 -y 485.90143 -z 4
n -t 0.0 -s 42 -S UP -v circle -c blue -x 286.86136 -y 412.94522 -z 4
n -t 0.0 -s 85 -S UP -v circle -c blue -x 15.271097 -y 418.26743 -z 4
n -t 0.0 -s 86 -S UP -v circle -c blue -x 150.3472 -y 37.12544 -z 4
n -t 0.0 -s 10 -S UP -v circle -c blue -x 33.381226 -y 410.81805 -z 4
n -t 0.0 -s 21 -S UP -v circle -c blue -x 444.31793 -y 312.93774 -z 4
n -t 0.0 -s 43 -S UP -v circle -c blue -x 318.17615 -y 345.7659 -z 4
n -t 0.0 -s 87 -S UP -v circle -c blue -x 28.488844 -y 446.81085 -z 4
n -t 0.0 -s 88 -S UP -v circle -c blue -x 340.9101 -y 46.274246 -z 4
n -t 0.0 -s 44 -S UP -v circle -c blue -x 450.563 -y 29.893875 -z 4
n -t 0.0 -s 89 -S UP -v circle -c blue -x 434.99124 -y 164.0636 -z 4
n -t 0.0 -s 90 -S UP -v circle -c blue -x 465.0262 -y 98.991035 -z 4
n -t 0.0 -s 22 -S UP -v circle -c blue -x 15.002131 -y 51.02691 -z 4
n -t 0.0 -s 45 -S UP -v circle -c blue -x 371.19977 -y 426.3464 -z 4
n -t 0.0 -s 91 -S UP -v circle -c blue -x 400.58832 -y 354.74078 -z 4
n -t 0.0 -s 92 -S UP -v circle -c blue -x 82.07509 -y 294.1627 -z 4
n -t 0.0 -s 46 -S UP -v circle -c blue -x 269.2048 -y 194.81903 -z 4
n -t 0.0 -s 93 -S UP -v circle -c blue -x 345.96744 -y 77.29414 -z 4
n -t 0.0 -s 94 -S UP -v circle -c blue -x 163.55733 -y 422.95505 -z 4
n -t 0.0 -s 2 -S UP -v circle -c red -x 58.225006 -y 140.21921 -z 4
n -t 0.0 -s 5 -S UP -v circle -c red -x 118.816765 -y 212.44109 -z 4
n -t 0.0 -s 11 -S UP -v circle -c blue -x 109.10991 -y 29.702902 -z 4
n -t 0.0 -s 23 -S UP -v circle -c blue -x 472.7663 -y 251.69269 -z 4
n -t 0.0 -s 47 -S UP -v circle -c blue -x 401.17566 -y 361.6938 -z 4
n -t 0.0 -s 95 -S UP -v circle -c blue -x 209.15219 -y 229.59172 -z 4
n -t 0.0 -s 96 -S UP -v circle -c blue -x 127.35248 -y 340.00958 -z 4
n -t 0.0 -s 48 -S UP -v circle -c blue -x 297.1553 -y 460.98798 -z 4
n -t 0.0 -s 97 -S UP -v circle -c blue -x 253.03296 -y 458.99405 -z 4
n -t 0.0 -s 98 -S UP -v circle -c blue -x 34.69038 -y 260.5534 -z 4
n -t 0.0 -s 24 -S UP -v circle -c blue -x 68.0055 -y 324.79495 -z 4
n -t 0.0 -s 49 -S UP -v circle -c blue -x 97.39253 -y 345.48495 -z 4
n -t 0.0 -s 99 -S UP -v circle -c blue -x 427.138 -y 115.621506 -z 4
n -t 0.0 -s 100 -S UP -v circle -c blue -x 134.53963 -y 21.993458 -z 4
n -t 0.0 -s 50 -S UP -v circle -c blue -x 423.11078 -y 118.6468 -z 4
n -t 0.0 -s 101 -S UP -v circle -c blue -x 267.11945 -y 290.52856 -z 4
n -t 0.0 -s 102 -S UP -v circle -c blue -x 465.88974 -y 231.17422 -z 4
n -t 0.0 -s 12 -S UP -v circle -c blue -x 181.74084 -y 496.62143 -z 4
n -t 0.0 -s 25 -S UP -v circle -c blue -x 469.17886 -y 356.9141 -z 4
n -t 0.0 -s 51 -S UP -v circle -c blue -x 345.19113 -y 322.74088 -z 4
n -t 0.0 -s 103 -S UP -v circle -c blue -x 3.1450987 -y 131.9224 -z 4
n -t 0.0 -s 104 -S UP -v circle -c blue -x 490.29266 -y 259.44305 -z 4
n -t 0.0 -s 52 -S UP -v circle -c blue -x 54.73462 -y 456.099 -z 4
n -t 0.0 -s 105 -S UP -v circle -c blue -x 481.24945 -y 301.96097 -z 4
n -t 0.0 -s 106 -S UP -v circle -c blue -x 307.55164 -y 491.61447 -z 4
n -t 0.0 -s 26 -S UP -v circle -c blue -x 25.414795 -y 333.7855 -z 4
n -t 0.0 -s 53 -S UP -v circle -c blue -x 269.31442 -y 29.456556 -z 4
n -t 0.0 -s 107 -S UP -v circle -c blue -x 94.259056 -y 60.073463 -z 4
n -t 0.0 -s 108 -S UP -v circle -c blue -x 184.43396 -y 115.551384 -z 4
n -t 0.0 -s 54 -S UP -v circle -c blue -x 493.43555 -y 160.51555 -z 4
n -t 0.0 -s 109 -S UP -v circle -c blue -x 93.5314 -y 323.75983 -z 4
n -t 0.0 -s 110 -S UP -v circle -c blue -x 497.8839 -y 4.1345954 -z 4
n -t 0.0 -s 6 -S UP -v circle -c red -x 251.6296 -y 432.8734 -z 4
n -t 0.0 -s 13 -S UP -v circle -c blue -x 499.23462 -y 108.190895 -z 4
n -t 0.0 -s 27 -S UP -v circle -c blue -x 141.6823 -y 238.93875 -z 4
n -t 0.0 -s 55 -S UP -v circle -c blue -x 419.25818 -y 399.95163 -z 4
n -t 0.0 -s 111 -S UP -v circle -c blue -x 464.60706 -y 428.61047 -z 4
n -t 0.0 -s 112 -S UP -v circle -c blue -x 303.87762 -y 377.69315 -z 4
n -t 0.0 -s 56 -S UP -v circle -c blue -x 37.522404 -y 55.375725 -z 4
n -t 0.0 -s 113 -S UP -v circle -c blue -x 311.96167 -y 51.559837 -z 4
n -t 0.0 -s 114 -S UP -v circle -c blue -x 204.56746 -y 93.39523 -z 4
n -t 0.0 -s 28 -S UP -v circle -c blue -x 261.5025 -y 429.39154 -z 4
n -t 0.0 -s 57 -S UP -v circle -c blue -x 250.06876 -y 330.46948 -z 4
n -t 0.0 -s 115 -S UP -v circle -c blue -x 106.158226 -y 467.4356 -z 4
n -t 0.0 -s 116 -S UP -v circle -c blue -x 308.7854 -y 28.590918 -z 4
n -t 0.0 -s 58 -S UP -v circle -c blue -x 498.16962 -y 348.83527 -z 4
n -t 0.0 -s 117 -S UP -v circle -c blue -x 404.45294 -y 422.53973 -z 4
n -t 0.0 -s 118 -S UP -v circle -c blue -x 493.71173 -y 461.663 -z 4
n -t 0.0 -s 14 -S UP -v circle -c blue -x 0.4350543 -y 339.24576 -z 4
n -t 0.0 -s 29 -S UP -v circle -c blue -x 407.3077 -y 308.7897 -z 4
n -t 0.0 -s 59 -S UP -v circle -c blue -x 165.3473 -y 47.921745 -z 4
n -t 0.0 -s 119 -S UP -v circle -c blue -x 99.72784 -y 350.701 -z 4
n -t 0.0 -s 120 -S UP -v circle -c blue -x 453.27402 -y 499.64133 -z 4
n -t 0.0 -s 60 -S UP -v circle -c blue -x 293.57098 -y 454.04596 -z 4
n -t 0.0 -s 121 -S UP -v circle -c blue -x 476.7451 -y 448.9517 -z 4
n -t 0.0 -s 122 -S UP -v circle -c blue -x 306.6382 -y 13.803064 -z 4
n -t 0.0 -s 30 -S UP -v circle -c blue -x 200.97855 -y 7.137924 -z 4
n -t 0.0 -s 61 -S UP -v circle -c blue -x 104.128006 -y 463.55972 -z 4
n -t 0.0 -s 123 -S UP -v circle -c blue -x 336.19684 -y 20.234377 -z 4
n -t 0.0 -s 124 -S UP -v circle -c blue -x 178.32468 -y 68.905 -z 4
n -t 0.0 -s 62 -S UP -v circle -c blue -x 12.995124 -y 248.7652 -z 4
n -t 0.0 -s 125 -S UP -v circle -c blue -x 170.7195 -y 79.435646 -z 4
n -t 0.0 -s 126 -S UP -v circle -c blue -x 310.6685 -y 228.82828 -z 4
n -t 0.57654965 -s 17 -S UP -v circle -c blue -x 62.520668 -y 399.36597 -z 4
n -t 3.3410516 -s 116 -S UP -v circle -c blue -x 336.35834 -y 12.629119 -z 4
n -t 3.6587613 -s 40 -S UP -v circle -c blue -x 426.18823 -y 329.26318 -z 4
n -t 3.7588198 -s 148 -S UP -v circle -c blue -x 229.16986 -y 108.08017 -z 4
n -t 4.2748013 -s 65 -S UP -v circle -c blue -x 400.9433 -y 70.49385 -z 4
n -t 5.694958 -s 77 -S UP -v circle -c blue -x 475.18365 -y 49.94191 -z 4
n -t 5.8063602 -s 51 -S UP -v circle -c blue -x 335.7537 -y 285.97964 -z 4
n -t 5.965765 -s 74 -S UP -v circle -c blue -x 33.904747 -y 147.9223 -z 4
n -t 6.245235 -s 103 -S UP -v circle -c blue -x 73.70436 -y 54.163315 -z 4
n -t 7.035192 -s 7 -S UP -v circle -c red -x 403.43192 -y 133.8238 -z 4
n -t 7.0980334 -s 127 -S UP -v circle -c blue -x 396.2511 -y 136.51823 -z 4
n -t 7.1331563 -s 147 -S UP -v circle -c blue -x 310.01282 -y 269.0304 -z 4
n -t 7.560849 -s 6 -S UP -v circle -c red -x 229.39159 -y 330.2441 -z 4
n -t 8.653038 -s 83 -S UP -v circle -c blue -x 136.22194 -y 247.74776 -z 4
n -t 8.772968 -s 27 -S UP -v circle -c blue -x 42.67343 -y 353.1481 -z 4
n -t 8.793364 -s 9 -S UP -v circle -c blue -x 232.37584 -y 439.7371 -z 4
n -t 8.946039 -s 18 -S UP -v circle -c blue -x 446.62946 -y 187.58199 -z 4
n -t 9.025753 -s 2 -S UP -v circle -c red -x 25.97055 -y 282.8615 -z 4
n -t 9.5006275 -s 112 -S UP -v circle -c blue -x 183.51929 -y 430.2768 -z 4
n -t 9.576965 -s 59 -S UP -v circle -c blue -x 198.28363 -y 228.93265 -z 4
n -t 9.651992 -s 12 -S UP -v circle -c blue -x 105.44726 -y 462.2497 -z 4
n -t 10.2316885 -s 137 -S UP -v circle -c blue -x 126.45478 -y 427.39444 -z 4
n -t 11.058841 -s 50 -S UP -v circle -c blue -x 237.7941 -y 175.80254 -z 4
n -t 11.180307 -s 48 -S UP -v circle -c blue -x 183.71774 -y 289.0624 -z 4
n -t 11.283504 -s 141 -S UP -v circle -c blue -x 409.99194 -y 70.09218 -z 4
n -t 11.805878 -s 143 -S UP -v circle -c blue -x 410.696 -y 462.23166 -z 4
n -t 12.20336 -s 62 -S UP -v circle -c blue -x 30.538788 -y 7.172531 -z 4
n -t 12.487781 -s 96 -S UP -v circle -c blue -x 119.84238 -y 125.18155 -z 4
n -t 13.556565 -s 119 -S UP -v circle -c blue -x 171.81024 -y 369.79868 -z 4
n -t 13.611131 -s 19 -S UP -v circle -c blue -x 385.52625 -y 248.10022 -z 4
n -t 13.7237625 -s 31 -S UP -v circle -c blue -x 481.1473 -y 220.06944 -z 4
n -t 13.88927 -s 42 -S UP -v circle -c blue -x 84.82291 -y 366.885 -z 4
n -t 15.318061 -s 39 -S UP -v circle -c blue -x 496.08057 -y 468.24878 -z 4
n -t 15.384901 -s 56 -S UP -v circle -c blue -x 276.71613 -y 47.080593 -z 4
n -t 15.405636 -s 74 -S UP -v circle -c blue -x 115.63135 -y 125.968315 -z 4
n -t 15.657724 -s 113 -S UP -v circle -c blue -x 166.46686 -y 178.89702 -z 4
n -t 16.233343 -s 101 -S UP -v circle -c blue -x 482.9939 -y 353.9204 -z 4
n -t 16.348738 -s 10 -S UP -v circle -c blue -x 46.96949 -y 300.949 -z 4
n -t 16.469898 -s 29 -S UP -v circle -c blue -x 331.03326 -y 458.15903 -z 4
n -t 16.877516 -s 40 -S UP -v circle -c blue -x 216.2152 -y 459.8714 -z 4
n -t 17.675926 -s 150 -S UP -v circle -c blue -x 437.4722 -y 84.04846 -z 4
n -t 17.70797 -s 131 -S UP -v circle -c blue -x 91.7108 -y 230.0731 -z 4
n -t 18.087173 -s 8 -S UP -v circle -c red -x 123.25956 -y 291.1096 -z 4
n -t 18.126808 -s 24 -S UP -v circle -c blue -x 270.61395 -y 303.87204 -z 4
n -t 18.132154 -s 148 -S UP -v circle -c blue -x 107.82515 -y 331.9558 -z 4
n -t 18.222927 -s 80 -S UP -v circle -c blue -x 332.92877 -y 399.5734 -z 4
n -t 18.697964 -s 37 -S UP -v circle -c blue -x 20.641846 -y 2.1102905 -z 4
n -t 18.91758 -s 6 -S UP -v circle -c red -x 148.31552 -y 225.61397 -z 4
n -t 18.949259 -s 9 -S UP -v circle -c blue -x 314.20255 -y 468.93304 -z 4
n -t 19.191324 -s 78 -S UP -v circle -c blue -x 218.46774 -y 376.72266 -z 4
n -t 19.516848 -s 114 -S UP -v circle -c blue -x 432.79297 -y 252.72127 -z 4
n -t 19.536837 -s 34 -S UP -v circle -c blue -x 409.80298 -y 404.07352 -z 4
n -t 19.707567 -s 50 -S UP -v circle -c blue -x 270.08652 -y 44.855972 -z 4
n -t 19.962389 -s 124 -S UP -v circle -c blue -x 171.07494 -y 315.82718 -z 4
n -t 20.231855 -s 113 -S UP -v circle -c blue -x 140.49544 -y 118.94753 -z 4
n -t 20.604292 -s 23 -S UP -v circle -c blue -x 251.24081 -y 473.66748 -z 4
n -t 20.66 -s 94 -S UP -v circle -c blue -x 237.45241 -y 283.35678 -z 4
n -t 20.81833 -s 59 -S UP -v circle -c blue -x 58.514862 -y 229.52003 -z 4
n -t 21.076782 -s 43 -S UP -v circle -c blue -x 20.723175 -y 156.29301 -z 4
n -t 21.083385 -s 53 -S UP -v circle -c blue -x 197.63379 -y 218.55328 -z 4
n -t 21.09706 -s 69 -S UP -v circle -c blue -x 174.56168 -y 411.5503 -z 4
n -t 21.220945 -s 18 -S UP -v circle -c blue -x 301.866 -y 272.7407 -z 4
n -t 21.375713 -s 147 -S UP -v circle -c blue -x 134.93314 -y 163.69211 -z 4
n -t 21.495667 -s 82 -S UP -v circle -c blue -x 17.171295 -y 220.97557 -z 4
n -t 21.602243 -s 139 -S UP -v circle -c blue -x 223.44402 -y 125.63653 -z 4
n -t 21.768028 -s 125 -S UP -v circle -c blue -x 264.40607 -y 481.40448 -z 4
n -t 21.835527 -s 115 -S UP -v circle -c blue -x 397.60983 -y 363.85745 -z 4
n -t 21.953186 -s 116 -S UP -v circle -c blue -x 463.72156 -y 187.97314 -z 4
n -t 22.046556 -s 20 -S UP -v circle -c blue -x 63.6649 -y 202.38219 -z 4
n -t 23.042488 -s 86 -S UP -v circle -c blue -x 11.16243 -y 193.38846 -z 4
n -t 23.04667 -s 68 -S UP -v circle -c blue -x 394.49258 -y 284.53372 -z 4
n -t 23.326025 -s 102 -S UP -v circle -c blue -x 69.22171 -y 247.21858 -z 4
n -t 23.798601 -s 133 -S UP -v circle -c blue -x 440.39447 -y 268.25198 -z 4
n -t 23.800377 -s 38 -S UP -v circle -c blue -x 381.97684 -y 376.07965 -z 4
n -t 24.123632 -s 129 -S UP -v circle -c blue -x 152.14468 -y 394.0992 -z 4
n -t 24.249062 -s 132 -S UP -v circle -c blue -x 258.74 -y 4.3864746 -z 4
n -t 25.319197 -s 69 -S UP -v circle -c blue -x 179.50868 -y 359.23425 -z 4
n -t 25.398262 -s 65 -S UP -v circle -c blue -x 330.48373 -y 280.55865 -z 4
n -t 25.401674 -s 25 -S UP -v circle -c blue -x 415.2351 -y 301.7719 -z 4
n -t 25.699312 -s 92 -S UP -v circle -c blue -x 57.318325 -y 3.5740967 -z 4
n -t 26.326004 -s 16 -S UP -v circle -c blue -x 250.95496 -y 41.291412 -z 4
n -t 26.431667 -s 117 -S UP -v circle -c blue -x 473.15802 -y 198.5633 -z 4
n -t 26.464334 -s 112 -S UP -v circle -c blue -x 362.58505 -y 185.13055 -z 4
n -t 26.613361 -s 60 -S UP -v circle -c blue -x 489.0706 -y 0.3076172 -z 4
n -t 26.790085 -s 11 -S UP -v circle -c blue -x 206.5016 -y 26.44059 -z 4
n -t 26.822039 -s 7 -S UP -v circle -c red -x 192.20287 -y 422.35754 -z 4
n -t 26.852545 -s 132 -S UP -v circle -c blue -x 293.23645 -y 24.949762 -z 4
n -t 26.887922 -s 12 -S UP -v circle -c blue -x 333.16754 -y 243.48352 -z 4
n -t 27.65238 -s 109 -S UP -v circle -c blue -x 406.226 -y 5.3393555 -z 4
n -t 27.960623 -s 78 -S UP -v circle -c blue -x 129.34825 -y 273.19193 -z 4
n -t 28.160131 -s 150 -S UP -v circle -c blue -x 375.2972 -y 254.95358 -z 4
n -t 28.19105 -s 35 -S UP -v circle -c blue -x 366.55914 -y 36.354065 -z 4
n -t 28.279627 -s 89 -S UP -v circle -c blue -x 145.01105 -y 358.2135 -z 4
n -t 28.313797 -s 137 -S UP -v circle -c blue -x 392.84915 -y 316.27405 -z 4
n -t 28.802761 -s 15 -S UP -v circle -c blue -x 225.48695 -y 109.75192 -z 4
n -t 29.12442 -s 98 -S UP -v circle -c blue -x 88.324844 -y 24.377945 -z 4
n -t 29.361017 -s 139 -S UP -v circle -c blue -x 356.20428 -y 139.94304 -z 4
n -t 29.543575 -s 129 -S UP -v circle -c blue -x 201.31964 -y 442.5607 -z 4
n -t 29.554909 -s 71 -S UP -v circle -c blue -x 432.4152 -y 248.50163 -z 4
n -t 29.754656 -s 45 -S UP -v circle -c blue -x 25.46402 -y 422.78333 -z 4
n -t 29.971851 -s 127 -S UP -v circle -c blue -x 235.99794 -y 235.74802 -z 4
n -t 30.187279 -s 126 -S UP -v circle -c blue -x 128.42834 -y 138.06601 -z 4
n -t 30.241465 -s 47 -S UP -v circle -c blue -x 23.881622 -y 153.53648 -z 4
n -t 30.885027 -s 75 -S UP -v circle -c blue -x 303.58765 -y 380.32812 -z 4
n -t 30.928463 -s 51 -S UP -v circle -c blue -x 82.39319 -y 450.74982 -z 4
n -t 31.031527 -s 13 -S UP -v circle -c blue -x 30.334015 -y 491.93692 -z 4
n -t 31.101149 -s 98 -S UP -v circle -c blue -x 116.32905 -y 29.169315 -z 4
n -t 31.242165 -s 61 -S UP -v circle -c blue -x 474.7484 -y 210.50676 -z 4
n -t 31.511003 -s 87 -S UP -v circle -c blue -x 254.1398 -y 155.11978 -z 4
n -t 31.889011 -s 37 -S UP -v circle -c blue -x 24.739716 -y 162.39992 -z 4
n -t 31.893036 -s 66 -S UP -v circle -c blue -x 351.91888 -y 75.348114 -z 4
n -t 31.924952 -s 112 -S UP -v circle -c blue -x 303.1646 -y 189.38383 -z 4
n -t 32.096024 -s 28 -S UP -v circle -c blue -x 154.69075 -y 85.338776 -z 4
n -t 32.10733 -s 90 -S UP -v circle -c blue -x 75.078186 -y 421.9711 -z 4
n -t 32.685493 -s 10 -S UP -v circle -c blue -x 294.7581 -y 300.9672 -z 4
n -t 32.693996 -s 143 -S UP -v circle -c blue -x 399.1873 -y 350.59467 -z 4
n -t 33.254242 -s 46 -S UP -v circle -c blue -x 425.6071 -y 135.87518 -z 4
n -t 33.93785 -s 122 -S UP -v circle -c blue -x 2.8138123 -y 89.75472 -z 4