# Trace file generated by Jist/Swans Version 1.0.6. at Fri Jul 26 20:34:14 BRT 2013
V -t * -v 1.0a5 -a 0
W -t * -x 410 -y 410
A -t * -n 1 -p 0 -o 0xffffffff -c 31 -a 1
A -t * -h 1 -m 2147483647 -s 0
n -t 0.0 -s 1 -S UP -v circle -c red -x 259.19193 -y 257.917 -z 4
n -t 0.0 -s 2 -S UP -v circle -c red -x 456.6531 -y 191.84282 -z 4
n -t 0.0 -s 3 -S UP -v circle -c red -x 456.72556 -y 466.14835 -z 4
n -t 0.0 -s 4 -S UP -v circle -c red -x 39.449753 -y 387.67825 -z 4
n -t 0.0 -s 5 -S UP -v circle -c red -x 294.08636 -y 127.82475 -z 4
n -t 0.0 -s 6 -S UP -v circle -c red -x 474.2388 -y 460.5066 -z 4
n -t 0.0 -s 7 -S UP -v circle -c red -x 33.173233 -y 62.6477 -z 4
n -t 0.0 -s 8 -S UP -v circle -c red -x 19.715578 -y 56.798847 -z 4
n -t 0.0 -s 9 -S UP -v circle -c blue -x 308.7116 -y 287.23032 -z 4
n -t 0.0 -s 10 -S UP -v circle -c blue -x 24.73545 -y 441.91922 -z 4
n -t 0.0 -s 11 -S UP -v circle -c blue -x 38.69876 -y 214.63985 -z 4
n -t 0.0 -s 12 -S UP -v circle -c blue -x 463.2789 -y 389.59006 -z 4
n -t 0.0 -s 13 -S UP -v circle -c blue -x 422.25745 -y 460.96262 -z 4
n -t 0.0 -s 14 -S UP -v circle -c blue -x 334.60138 -y 269.9047 -z 4
n -t 0.0 -s 15 -S UP -v circle -c blue -x 450.88055 -y 139.90733 -z 4
n -t 0.0 -s 16 -S UP -v circle -c blue -x 422.18164 -y 494.52283 -z 4
n -t 0.0 -s 17 -S UP -v circle -c blue -x 165.2187 -y 159.68219 -z 4
n -t 0.0 -s 18 -S UP -v circle -c blue -x 346.8272 -y 5.694419 -z 4
n -t 0.0 -s 19 -S UP -v circle -c blue -x 136.92552 -y 181.47096 -z 4
n -t 0.0 -s 20 -S UP -v circle -c blue -x 69.38934 -y 160.88182 -z 4
n -t 0.0 -s 21 -S UP -v circle -c blue -x 207.39815 -y 456.67365 -z 4
n -t 0.0 -s 22 -S UP -v circle -c blue -x 442.78732 -y 9.275616 -z 4
n -t 0.0 -s 23 -S UP -v circle -c blue -x 431.6213 -y 420.60916 -z 4
n -t 0.0 -s 24 -S UP -v circle -c blue -x 35.051376 -y 274.27396 -z 4
n -t 0.0 -s 25 -S UP -v circle -c blue -x 335.128 -y 287.60544 -z 4
n -t 0.0 -s 26 -S UP -v circle -c blue -x 331.29767 -y 17.42658 -z 4
n -t 0.0 -s 27 -S UP -v circle -c blue -x 320.04443 -y 109.391304 -z 4
n -t 0.0 -s 28 -S UP -v circle -c blue -x 417.17715 -y 236.40865 -z 4
n -t 0.0 -s 29 -S UP -v circle -c blue -x 247.30522 -y 132.58546 -z 4
n -t 0.0 -s 30 -S UP -v circle -c blue -x 76.452705 -y 40.819496 -z 4
n -t 0.0 -s 31 -S UP -v circle -c blue -x 466.73853 -y 418.04013 -z 4
n -t 0.0 -s 32 -S UP -v circle -c blue -x 135.81117 -y 405.09378 -z 4
n -t 0.0 -s 33 -S UP -v circle -c blue -x 275.48068 -y 75.095894 -z 4
n -t 0.0 -s 34 -S UP -v circle -c blue -x 228.49008 -y 144.23155 -z 4
n -t 0.0 -s 35 -S UP -v circle -c blue -x 314.03464 -y 166.7558 -z 4
n -t 0.0 -s 36 -S UP -v circle -c blue -x 50.27768 -y 123.61678 -z 4
n -t 0.0 -s 37 -S UP -v circle -c blue -x 184.511 -y 70.76946 -z 4
n -t 0.0 -s 38 -S UP -v circle -c blue -x 155.23276 -y 453.69125 -z 4
n -t 0.0 -s 39 -S UP -v circle -c blue -x 218.76701 -y 339.07425 -z 4
n -t 0.0 -s 40 -S UP -v circle -c blue -x 400.17896 -y 40.02568 -z 4
n -t 0.0 -s 41 -S UP -v circle -c blue -x 277.17755 -y 300.47256 -z 4
n -t 0.0 -s 42 -S UP -v circle -c blue -x 445.58337 -y 342.29587 -z 4
n -t 0.0 -s 43 -S UP -v circle -c blue -x 108.844604 -y 254.4004 -z 4
n -t 0.0 -s 44 -S UP -v circle -c blue -x 162.5703 -y 126.29911 -z 4
n -t 0.0 -s 45 -S UP -v circle -c blue -x 108.69616 -y 226.79085 -z 4
n -t 0.0 -s 46 -S UP -v circle -c blue -x 171.09734 -y 182.47205 -z 4
n -t 0.0 -s 47 -S UP -v circle -c blue -x 418.97134 -y 311.04657 -z 4
n -t 0.0 -s 48 -S UP -v circle -c blue -x 340.0967 -y 94.99082 -z 4
n -t 0.0 -s 49 -S UP -v circle -c blue -x 215.18489 -y 420.76526 -z 4
n -t 0.0 -s 50 -S UP -v circle -c blue -x 346.83597 -y 316.61102 -z 4
n -t 0.0 -s 51 -S UP -v circle -c blue -x 108.26447 -y 197.92435 -z 4
n -t 0.0 -s 52 -S UP -v circle -c blue -x 7.8659353 -y 276.65796 -z 4
n -t 0.0 -s 53 -S UP -v circle -c blue -x 373.92813 -y 376.60666 -z 4
n -t 0.0 -s 54 -S UP -v circle -c blue -x 128.50264 -y 490.29553 -z 4
n -t 0.0 -s 55 -S UP -v circle -c blue -x 371.60312 -y 412.9787 -z 4
n -t 0.0 -s 56 -S UP -v circle -c blue -x 150.44498 -y 465.22888 -z 4
n -t 0.0 -s 57 -S UP -v circle -c blue -x 42.668373 -y 386.1206 -z 4
n -t 0.0 -s 58 -S UP -v circle -c blue -x 119.2899 -y 412.74536 -z 4
n -t 0.0 -s 59 -S UP -v circle -c blue -x 231.24489 -y 319.5194 -z 4
n -t 0.0 -s 60 -S UP -v circle -c blue -x 414.60556 -y 260.44016 -z 4
n -t 0.0 -s 61 -S UP -v circle -c blue -x 270.17792 -y 101.7023 -z 4
n -t 0.0 -s 62 -S UP -v circle -c blue -x 136.91718 -y 357.64407 -z 4
n -t 0.0 -s 63 -S UP -v circle -c blue -x 35.582214 -y 317.79712 -z 4
n -t 0.0 -s 64 -S UP -v circle -c blue -x 388.30753 -y 36.56894 -z 4
n -t 0.0 -s 65 -S UP -v circle -c blue -x 31.006336 -y 177.01677 -z 4
n -t 0.0 -s 66 -S UP -v circle -c blue -x 409.01324 -y 294.16882 -z 4
n -t 0.0 -s 67 -S UP -v circle -c blue -x 497.86554 -y 8.486957 -z 4
n -t 0.0 -s 68 -S UP -v circle -c blue -x 391.89767 -y 344.9103 -z 4
n -t 0.0 -s 69 -S UP -v circle -c blue -x 113.56881 -y 337.857 -z 4
n -t 0.0 -s 70 -S UP -v circle -c blue -x 423.30008 -y 442.8311 -z 4
n -t 0.0 -s 71 -S UP -v circle -c blue -x 279.30344 -y 477.18423 -z 4
n -t 0.0 -s 72 -S UP -v circle -c blue -x 33.61383 -y 313.79657 -z 4
n -t 0.0 -s 73 -S UP -v circle -c blue -x 382.63687 -y 402.1776 -z 4
n -t 0.0 -s 74 -S UP -v circle -c blue -x 57.958813 -y 383.6463 -z 4
n -t 0.0 -s 75 -S UP -v circle -c blue -x 258.15634 -y 34.58348 -z 4
n -t 0.0 -s 76 -S UP -v circle -c blue -x 438.22342 -y 444.42798 -z 4
n -t 0.0 -s 77 -S UP -v circle -c blue -x 444.8096 -y 137.92961 -z 4
n -t 0.0 -s 78 -S UP -v circle -c blue -x 157.11012 -y 405.18436 -z 4
n -t 0.0 -s 79 -S UP -v circle -c blue -x 29.272884 -y 405.70316 -z 4
n -t 0.0 -s 80 -S UP -v circle -c blue -x 104.988365 -y 113.38231 -z 4
n -t 0.0 -s 81 -S UP -v circle -c blue -x 468.69095 -y 420.07712 -z 4
n -t 0.0 -s 82 -S UP -v circle -c blue -x 396.51773 -y 172.21523 -z 4
n -t 0.0 -s 83 -S UP -v circle -c blue -x 346.97464 -y 473.33484 -z 4
n -t 0.0 -s 84 -S UP -v circle -c blue -x 289.1366 -y 83.39372 -z 4
n -t 0.0 -s 85 -S UP -v circle -c blue -x 150.26605 -y 424.05405 -z 4
n -t 0.0 -s 86 -S UP -v circle -c blue -x 105.42297 -y 6.9466534 -z 4
n -t 0.0 -s 87 -S UP -v circle -c blue -x 158.27704 -y 245.83707 -z 4
n -t 0.0 -s 88 -S UP -v circle -c blue -x 129.63382 -y 392.83728 -z 4
n -t 0.0 -s 89 -S UP -v circle -c blue -x 68.36522 -y 71.92427 -z 4
n -t 0.0 -s 90 -S UP -v circle -c blue -x 171.84552 -y 124.26314 -z 4
n -t 0.0 -s 91 -S UP -v circle -c blue -x 73.14163 -y 237.46056 -z 4
n -t 0.0 -s 92 -S UP -v circle -c blue -x 465.28738 -y 141.33096 -z 4
n -t 0.0 -s 93 -S UP -v circle -c blue -x 445.12332 -y 129.63646 -z 4
n -t 0.0 -s 94 -S UP -v circle -c blue -x 260.73566 -y 34.9091 -z 4
n -t 0.0 -s 95 -S UP -v circle -c blue -x 83.78679 -y 420.5831 -z 4
n -t 0.0 -s 96 -S UP -v circle -c blue -x 391.07724 -y 413.96182 -z 4
n -t 0.0 -s 97 -S UP -v circle -c blue -x 111.987175 -y 239.01958 -z 4
n -t 0.0 -s 98 -S UP -v circle -c blue -x 317.039 -y 32.220425 -z 4
n -t 0.0 -s 99 -S UP -v circle -c blue -x 76.04039 -y 333.54788 -z 4
n -t 0.0 -s 100 -S UP -v circle -c blue -x 107.09775 -y 389.8678 -z 4
n -t 0.0 -s 101 -S UP -v circle -c blue -x 283.0924 -y 256.54355 -z 4
n -t 0.0 -s 102 -S UP -v circle -c blue -x 209.03578 -y 207.79256 -z 4
n -t 0.0 -s 103 -S UP -v circle -c blue -x 172.30087 -y 305.24207 -z 4
n -t 0.0 -s 104 -S UP -v circle -c blue -x 3.6066175 -y 62.25252 -z 4
n -t 0.0 -s 105 -S UP -v circle -c blue -x 54.726513 -y 62.373222 -z 4
n -t 0.0 -s 106 -S UP -v circle -c blue -x 391.24234 -y 299.38458 -z 4
n -t 0.0 -s 107 -S UP -v circle -c blue -x 207.8798 -y 88.117035 -z 4
n -t 0.0 -s 108 -S UP -v circle -c blue -x 207.41638 -y 456.38528 -z 4
n -t 0.0 -s 109 -S UP -v circle -c blue -x 382.1142 -y 497.87344 -z 4
n -t 0.0 -s 110 -S UP -v circle -c blue -x 130.71352 -y 360.3932 -z 4
n -t 0.0 -s 111 -S UP -v circle -c blue -x 170.33067 -y 475.0444 -z 4
n -t 0.0 -s 112 -S UP -v circle -c blue -x 487.22635 -y 269.73312 -z 4
n -t 0.0 -s 113 -S UP -v circle -c blue -x 132.905 -y 287.4761 -z 4
n -t 0.0 -s 114 -S UP -v circle -c blue -x 145.75989 -y 254.39081 -z 4
n -t 0.0 -s 115 -S UP -v circle -c blue -x 224.82654 -y 212.2179 -z 4
n -t 0.0 -s 116 -S UP -v circle -c blue -x 478.4817 -y 474.0978 -z 4
n -t 0.0 -s 117 -S UP -v circle -c blue -x 180.51382 -y 201.6994 -z 4
n -t 0.0 -s 118 -S UP -v circle -c blue -x 451.89508 -y 320.5074 -z 4
n -t 0.0 -s 119 -S UP -v circle -c blue -x 7.7302456 -y 210.25255 -z 4
n -t 0.0 -s 120 -S UP -v circle -c blue -x 141.95964 -y 113.47544 -z 4
n -t 0.0 -s 121 -S UP -v circle -c blue -x 379.85843 -y 322.1138 -z 4
n -t 0.0 -s 122 -S UP -v circle -c blue -x 296.2544 -y 225.84521 -z 4
n -t 0.0 -s 123 -S UP -v circle -c blue -x 195.20866 -y 198.69876 -z 4
n -t 0.0 -s 124 -S UP -v circle -c blue -x 214.52063 -y 303.33078 -z 4
n -t 0.0 -s 125 -S UP -v circle -c blue -x 163.0584 -y 76.17694 -z 4
n -t 0.0 -s 126 -S UP -v circle -c blue -x 288.77536 -y 19.65189 -z 4
n -t 0.0 -s 127 -S UP -v circle -c blue -x 444.07428 -y 65.381256 -z 4
n -t 0.0 -s 128 -S UP -v circle -c blue -x 145.32599 -y 287.07535 -z 4
n -t 0.0 -s 129 -S UP -v circle -c blue -x 403.3038 -y 220.11482 -z 4
n -t 0.0 -s 130 -S UP -v circle -c blue -x 206.10875 -y 230.63588 -z 4
n -t 0.0 -s 131 -S UP -v circle -c blue -x 157.99391 -y 171.28781 -z 4
n -t 0.0 -s 132 -S UP -v circle -c blue -x 136.3118 -y 333.76123 -z 4
n -t 0.0 -s 133 -S UP -v circle -c blue -x 121.371864 -y 161.40526 -z 4
n -t 0.0 -s 134 -S UP -v circle -c blue -x 452.5277 -y 3.594935 -z 4
n -t 0.0 -s 135 -S UP -v circle -c blue -x 153.78746 -y 434.17557 -z 4
n -t 0.0 -s 136 -S UP -v circle -c blue -x 421.82175 -y 267.3498 -z 4
n -t 0.0 -s 137 -S UP -v circle -c blue -x 51.164597 -y 428.92267 -z 4
n -t 0.0 -s 138 -S UP -v circle -c blue -x 311.02872 -y 254.43762 -z 4
n -t 0.0 -s 139 -S UP -v circle -c blue -x 189.74564 -y 429.62805 -z 4
n -t 0.0 -s 140 -S UP -v circle -c blue -x 329.0406 -y 2.3877323 -z 4
n -t 0.0 -s 141 -S UP -v circle -c blue -x 38.159134 -y 218.43335 -z 4
n -t 0.0 -s 142 -S UP -v circle -c blue -x 407.36972 -y 133.71333 -z 4
n -t 0.0 -s 143 -S UP -v circle -c blue -x 470.728 -y 166.98772 -z 4
n -t 0.0 -s 144 -S UP -v circle -c blue -x 458.23203 -y 123.5204 -z 4
n -t 0.0 -s 145 -S UP -v circle -c blue -x 217.80771 -y 263.88358 -z 4
n -t 0.0 -s 146 -S UP -v circle -c blue -x 239.96562 -y 227.9259 -z 4
n -t 0.0 -s 147 -S UP -v circle -c blue -x 163.25992 -y 59.4061 -z 4
n -t 0.0 -s 148 -S UP -v circle -c blue -x 9.774804 -y 286.9943 -z 4
n -t 0.0 -s 149 -S UP -v circle -c blue -x 409.69376 -y 310.8016 -z 4
n -t 0.0 -s 150 -S UP -v circle -c blue -x 199.36221 -y 395.19208 -z 4
n -t 0.0 -s 151 -S UP -v circle -c blue -x 137.92876 -y 422.1931 -z 4
n -t 0.0 -s 152 -S UP -v circle -c blue -x 363.60202 -y 41.149406 -z 4
n -t 0.0 -s 153 -S UP -v circle -c blue -x 167.6445 -y 197.13965 -z 4
n -t 0.0 -s 154 -S UP -v circle -c blue -x 212.43655 -y 427.21545 -z 4
n -t 0.0 -s 155 -S UP -v circle -c blue -x 106.086494 -y 101.715866 -z 4
n -t 0.0 -s 156 -S UP -v circle -c blue -x 485.8888 -y 59.874207 -z 4
n -t 0.0 -s 157 -S UP -v circle -c blue -x 446.021 -y 479.00925 -z 4
n -t 0.0 -s 158 -S UP -v circle -c blue -x 498.5202 -y 353.0814 -z 4
n -t 0.0 -s 159 -S UP -v circle -c blue -x 33.198833 -y 58.28652 -z 4
n -t 0.0 -s 160 -S UP -v circle -c blue -x 97.695885 -y 258.09305 -z 4
n -t 0.0 -s 161 -S UP -v circle -c blue -x 378.0497 -y 174.01855 -z 4
n -t 0.0 -s 162 -S UP -v circle -c blue -x 417.3206 -y 152.03986 -z 4
n -t 0.0 -s 163 -S UP -v circle -c blue -x 192.13676 -y 400.79706 -z 4
n -t 0.0 -s 164 -S UP -v circle -c blue -x 290.76425 -y 311.58 -z 4
n -t 0.0 -s 165 -S UP -v circle -c blue -x 213.33072 -y 33.29867 -z 4
n -t 0.0 -s 166 -S UP -v circle -c blue -x 21.813631 -y 422.22696 -z 4
n -t 0.0 -s 167 -S UP -v circle -c blue -x 466.28912 -y 498.29855 -z 4
n -t 0.0 -s 168 -S UP -v circle -c blue -x 416.7714 -y 234.73883 -z 4
n -t 0.0 -s 169 -S UP -v circle -c blue -x 28.551132 -y 294.80978 -z 4
n -t 0.0 -s 170 -S UP -v circle -c blue -x 203.20868 -y 160.18665 -z 4
n -t 0.0 -s 171 -S UP -v circle -c blue -x 24.582386 -y 374.29007 -z 4
n -t 0.0 -s 172 -S UP -v circle -c blue -x 108.09532 -y 379.4639 -z 4
n -t 0.0 -s 173 -S UP -v circle -c blue -x 407.95218 -y 115.14687 -z 4
n -t 0.0 -s 174 -S UP -v circle -c blue -x 229.63634 -y 242.08939 -z 4
n -t 0.0 -s 175 -S UP -v circle -c blue -x 268.32437 -y 123.17356 -z 4
n -t 0.0 -s 176 -S UP -v circle -c blue -x 210.49812 -y 5.7914553 -z 4
n -t 0.0 -s 177 -S UP -v circle -c blue -x 388.24313 -y 324.81906 -z 4
n -t 0.0 -s 178 -S UP -v circle -c blue -x 35.385998 -y 461.7045 -z 4
n -t 0.0 -s 179 -S UP -v circle -c blue -x 493.24716 -y 75.14683 -z 4
n -t 0.0 -s 180 -S UP -v circle -c blue -x 221.1273 -y 440.77615 -z 4
n -t 0.0 -s 181 -S UP -v circle -c blue -x 76.424446 -y 302.85486 -z 4
n -t 0.0 -s 182 -S UP -v circle -c blue -x 313.32095 -y 72.467896 -z 4
n -t 0.0 -s 183 -S UP -v circle -c blue -x 19.20554 -y 375.74908 -z 4
n -t 0.0 -s 184 -S UP -v circle -c blue -x 28.847902 -y 285.87387 -z 4
n -t 0.0 -s 185 -S UP -v circle -c blue -x 478.37714 -y 120.590416 -z 4
n -t 0.0 -s 186 -S UP -v circle -c blue -x 299.52405 -y 201.39769 -z 4
n -t 0.0 -s 187 -S UP -v circle -c blue -x 114.69507 -y 39.339096 -z 4
n -t 0.0 -s 188 -S UP -v circle -c blue -x 348.15564 -y 155.0848 -z 4
n -t 0.0 -s 189 -S UP -v circle -c blue -x 221.09523 -y 161.62553 -z 4
n -t 0.0 -s 190 -S UP -v circle -c blue -x 116.278145 -y 251.14438 -z 4
n -t 0.0 -s 191 -S UP -v circle -c blue -x 383.68494 -y 381.97797 -z 4
n -t 0.0 -s 192 -S UP -v circle -c blue -x 222.785 -y 26.208311 -z 4
n -t 0.0 -s 193 -S UP -v circle -c blue -x 12.082159 -y 185.18752 -z 4
n -t 0.0 -s 194 -S UP -v circle -c blue -x 157.16147 -y 483.12354 -z 4
n -t 0.0 -s 195 -S UP -v circle -c blue -x 388.21872 -y 38.50457 -z 4
n -t 0.0 -s 196 -S UP -v circle -c blue -x 350.61453 -y 465.7844 -z 4
n -t 0.0 -s 197 -S UP -v circle -c blue -x 355.70163 -y 263.52078 -z 4
n -t 0.0 -s 198 -S UP -v circle -c blue -x 256.33823 -y 379.46313 -z 4
n -t 0.0 -s 199 -S UP -v circle -c blue -x 151.81795 -y 21.033466 -z 4
n -t 0.0 -s 200 -S UP -v circle -c blue -x 247.5847 -y 244.64336 -z 4
n -t 0.0 -s 201 -S UP -v circle -c blue -x 238.16878 -y 190.42427 -z 4
n -t 0.0 -s 202 -S UP -v circle -c blue -x 283.05118 -y 114.40837 -z 4
n -t 0.0 -s 203 -S UP -v circle -c blue -x 325.9299 -y 481.67108 -z 4
n -t 0.0 -s 204 -S UP -v circle -c blue -x 425.08234 -y 195.4582 -z 4
n -t 0.0 -s 205 -S UP -v circle -c blue -x 200.38545 -y 327.6883 -z 4
n -t 0.0 -s 206 -S UP -v circle -c blue -x 341.87338 -y 26.862026 -z 4
n -t 0.0 -s 207 -S UP -v circle -c blue -x 204.49382 -y 0.9378791 -z 4
n -t 0.0 -s 208 -S UP -v circle -c blue -x 302.60806 -y 76.292755 -z 4
n -t 0.0 -s 209 -S UP -v circle -c blue -x 440.96948 -y 428.93536 -z 4
n -t 0.0 -s 210 -S UP -v circle -c blue -x 439.45203 -y 374.89786 -z 4
n -t 0.0 -s 211 -S UP -v circle -c blue -x 440.1563 -y 335.19995 -z 4
n -t 0.0 -s 212 -S UP -v circle -c blue -x 15.532822 -y 194.85959 -z 4
n -t 0.0 -s 213 -S UP -v circle -c blue -x 330.59662 -y 256.24893 -z 4
n -t 0.0 -s 214 -S UP -v circle -c blue -x 299.27835 -y 370.37085 -z 4
n -t 0.0 -s 215 -S UP -v circle -c blue -x 249.74886 -y 121.35571 -z 4
n -t 0.0 -s 216 -S UP -v circle -c blue -x 106.36124 -y 117.051155 -z 4
n -t 0.0 -s 217 -S UP -v circle -c blue -x 473.1682 -y 283.97803 -z 4
n -t 0.0 -s 218 -S UP -v circle -c blue -x 467.44315 -y 37.15706 -z 4
n -t 0.0 -s 219 -S UP -v circle -c blue -x 96.34736 -y 55.088936 -z 4
n -t 0.0 -s 220 -S UP -v circle -c blue -x 307.15945 -y 430.27875 -z 4
n -t 0.0 -s 221 -S UP -v circle -c blue -x 219.33765 -y 466.2347 -z 4
n -t 0.0 -s 222 -S UP -v circle -c blue -x 454.38812 -y 310.09207 -z 4
n -t 0.0 -s 223 -S UP -v circle -c blue -x 300.56567 -y 30.19163 -z 4
n -t 0.0 -s 224 -S UP -v circle -c blue -x 230.66705 -y 257.25287 -z 4
n -t 0.0 -s 225 -S UP -v circle -c blue -x 323.57297 -y 429.85443 -z 4
n -t 0.0 -s 226 -S UP -v circle -c blue -x 400.33936 -y 493.3361 -z 4
n -t 0.0 -s 227 -S UP -v circle -c blue -x 264.69217 -y 150.77556 -z 4
n -t 0.0 -s 228 -S UP -v circle -c blue -x 288.1016 -y 19.059896 -z 4
n -t 0.0 -s 229 -S UP -v circle -c blue -x 237.20222 -y 42.969078 -z 4
n -t 0.0 -s 230 -S UP -v circle -c blue -x 135.41022 -y 226.68013 -z 4
n -t 0.0 -s 231 -S UP -v circle -c blue -x 489.8605 -y 405.63406 -z 4
n -t 0.0 -s 232 -S UP -v circle -c blue -x 42.777657 -y 327.73904 -z 4
n -t 0.0 -s 233 -S UP -v circle -c blue -x 346.78375 -y 100.84662 -z 4
n -t 0.0 -s 234 -S UP -v circle -c blue -x 29.285282 -y 466.21674 -z 4
n -t 0.0 -s 235 -S UP -v circle -c blue -x 328.6525 -y 124.58092 -z 4
n -t 0.0 -s 236 -S UP -v circle -c blue -x 490.40024 -y 348.0347 -z 4
n -t 0.0 -s 237 -S UP -v circle -c blue -x 299.66116 -y 365.27878 -z 4
n -t 0.0 -s 238 -S UP -v circle -c blue -x 189.95035 -y 171.8345 -z 4
n -t 0.0 -s 239 -S UP -v circle -c blue -x 443.36304 -y 120.28488 -z 4
n -t 0.0 -s 240 -S UP -v circle -c blue -x 429.25565 -y 5.598724 -z 4
n -t 0.0 -s 241 -S UP -v circle -c blue -x 406.70978 -y 391.55386 -z 4
n -t 0.0 -s 242 -S UP -v circle -c blue -x 376.1065 -y 408.1559 -z 4
n -t 0.0 -s 243 -S UP -v circle -c blue -x 233.61469 -y 155.93547 -z 4
n -t 0.0 -s 244 -S UP -v circle -c blue -x 146.5118 -y 34.637688 -z 4
n -t 0.0 -s 245 -S UP -v circle -c blue -x 476.04874 -y 477.92917 -z 4
n -t 0.0 -s 246 -S UP -v circle -c blue -x 433.70892 -y 407.82236 -z 4
n -t 0.0 -s 247 -S UP -v circle -c blue -x 56.090622 -y 69.01592 -z 4
n -t 0.0 -s 248 -S UP -v circle -c blue -x 100.4523 -y 51.85002 -z 4
n -t 0.0 -s 249 -S UP -v circle -c blue -x 310.8884 -y 176.52296 -z 4
n -t 0.0 -s 250 -S UP -v circle -c blue -x 153.49626 -y 316.4415 -z 4
n -t 0.0 -s 1 -S UP -v circle -c red -x 259.19193 -y 257.917 -z 4
n -t 0.0 -s 3 -S UP -v circle -c red -x 456.72556 -y 466.14835 -z 4
n -t 0.0 -s 7 -S UP -v circle -c red -x 33.173233 -y 62.6477 -z 4
n -t 0.0 -s 15 -S UP -v circle -c blue -x 450.88055 -y 139.90733 -z 4
n -t 0.0 -s 31 -S UP -v circle -c blue -x 466.73853 -y 418.04013 -z 4
n -t 0.0 -s 63 -S UP -v circle -c blue -x 35.582214 -y 317.79712 -z 4
n -t 0.0 -s 127 -S UP -v circle -c blue -x 444.07428 -y 65.381256 -z 4
n -t 0.0 -s 128 -S UP -v circle -c blue -x 145.32599 -y 287.07535 -z 4
n -t 0.0 -s 64 -S UP -v circle -c blue -x 388.30753 -y 36.56894 -z 4
n -t 0.0 -s 129 -S UP -v circle -c blue -x 403.3038 -y 220.11482 -z 4
n -t 0.0 -s 130 -S UP -v circle -c blue -x 206.10875 -y 230.63588 -z 4
n -t 0.0 -s 32 -S UP -v circle -c blue -x 135.81117 -y 405.09378 -z 4
n -t 0.0 -s 65 -S UP -v circle -c blue -x 31.006336 -y 177.01677 -z 4
n -t 0.0 -s 131 -S UP -v circle -c blue -x 157.99391 -y 171.28781 -z 4
n -t 0.0 -s 132 -S UP -v circle -c blue -x 136.3118 -y 333.76123 -z 4
n -t 0.0 -s 66 -S UP -v circle -c blue -x 409.01324 -y 294.16882 -z 4
n -t 0.0 -s 133 -S UP -v circle -c blue -x 121.371864 -y 161.40526 -z 4
n -t 0.0 -s 134 -S UP -v circle -c blue -x 452.5277 -y 3.594935 -z 4
n -t 0.0 -s 16 -S UP -v circle -c blue -x 422.18164 -y 494.52283 -z 4
n -t 0.0 -s 33 -S UP -v circle -c blue -x 275.48068 -y 75.095894 -z 4
n -t 0.0 -s 67 -S UP -v circle -c blue -x 497.86554 -y 8.486957 -z 4
n -t 0.0 -s 135 -S UP -v circle -c blue -x 153.78746 -y 434.17557 -z 4
n -t 0.0 -s 136 -S UP -v circle -c blue -x 421.82175 -y 267.3498 -z 4
n -t 0.0 -s 68 -S UP -v circle -c blue -x 391.89767 -y 344.9103 -z 4
n -t 0.0 -s 137 -S UP -v circle -c blue -x 51.164597 -y 428.92267 -z 4
n -t 0.0 -s 138 -S UP -v circle -c blue -x 311.02872 -y 254.43762 -z 4
n -t 0.0 -s 34 -S UP -v circle -c blue -x 228.49008 -y 144.23155 -z 4
n -t 0.0 -s 69 -S UP -v circle -c blue -x 113.56881 -y 337.857 -z 4
n -t 0.0 -s 139 -S UP -v circle -c blue -x 189.74564 -y 429.62805 -z 4
n -t 0.0 -s 140 -S UP -v circle -c blue -x 329.0406 -y 2.3877323 -z 4
n -t 0.0 -s 70 -S UP -v circle -c blue -x 423.30008 -y 442.8311 -z 4
n -t 0.0 -s 141 -S UP -v circle -c blue -x 38.159134 -y 218.43335 -z 4
n -t 0.0 -s 142 -S UP -v circle -c blue -x 407.36972 -y 133.71333 -z 4
n -t 0.0 -s 8 -S UP -v circle -c red -x 19.715578 -y 56.798847 -z 4
n -t 0.0 -s 17 -S UP -v circle -c blue -x 165.2187 -y 159.68219 -z 4
n -t 0.0 -s 35 -S UP -v circle -c blue -x 314.03464 -y 166.7558 -z 4
n -t 0.0 -s 71 -S UP -v circle -c blue -x 279.30344 -y 477.18423 -z 4
n -t 0.0 -s 143 -S UP -v circle -c blue -x 470.728 -y 166.98772 -z 4
n -t 0.0 -s 144 -S UP -v circle -c blue -x 458.23203 -y 123.5204 -z 4
n -t 0.0 -s 72 -S UP -v circle -c blue -x 33.61383 -y 313.79657 -z 4
n -t 0.0 -s 145 -S UP -v circle -c blue -x 217.80771 -y 263.88358 -z 4
n -t 0.0 -s 146 -S UP -v circle -c blue -x 239.96562 -y 227.9259 -z 4
n -t 0.0 -s 36 -S UP -v circle -c blue -x 50.27768 -y 123.61678 -z 4
n -t 0.0 -s 73 -S UP -v circle -c blue -x 382.63687 -y 402.1776 -z 4
n -t 0.0 -s 147 -S UP -v circle -c blue -x 163.25992 -y 59.4061 -z 4
n -t 0.0 -s 148 -S UP -v circle -c blue -x 9.774804 -y 286.9943 -z 4
n -t 0.0 -s 74 -S UP -v circle -c blue -x 57.958813 -y 383.6463 -z 4
n -t 0.0 -s 149 -S UP -v circle -c blue -x 409.69376 -y 310.8016 -z 4
n -t 0.0 -s 150 -S UP -v circle -c blue -x 199.36221 -y 395.19208 -z 4
n -t 0.0 -s 18 -S UP -v circle -c blue -x 346.8272 -y 5.694419 -z 4
n -t 0.0 -s 37 -S UP -v circle -c blue -x 184.511 -y 70.76946 -z 4
n -t 0.0 -s 75 -S UP -v circle -c blue -x 258.15634 -y 34.58348 -z 4
n -t 0.0 -s 151 -S UP -v circle -c blue -x 137.92876 -y 422.1931 -z 4
n -t 0.0 -s 152 -S UP -v circle -c blue -x 363.60202 -y 41.149406 -z 4
n -t 0.0 -s 76 -S UP -v circle -c blue -x 438.22342 -y 444.42798 -z 4
n -t 0.0 -s 153 -S UP -v circle -c blue -x 167.6445 -y 197.13965 -z 4
n -t 0.0 -s 154 -S UP -v circle -c blue -x 212.43655 -y 427.21545 -z 4
n -t 0.0 -s 38 -S UP -v circle -c blue -x 155.23276 -y 453.69125 -z 4
n -t 0.0 -s 77 -S UP -v circle -c blue -x 444.8096 -y 137.92961 -z 4
n -t 0.0 -s 155 -S UP -v circle -c blue -x 106.086494 -y 101.715866 -z 4
n -t 0.0 -s 156 -S UP -v circle -c blue -x 485.8888 -y 59.874207 -z 4
n -t 0.0 -s 78 -S UP -v circle -c blue -x 157.11012 -y 405.18436 -z 4
n -t 0.0 -s 157 -S UP -v circle -c blue -x 446.021 -y 479.00925 -z 4
n -t 0.0 -s 158 -S UP -v circle -c blue -x 498.5202 -y 353.0814 -z 4
n -t 0.0 -s 4 -S UP -v circle -c red -x 39.449753 -y 387.67825 -z 4
n -t 0.0 -s 9 -S UP -v circle -c blue -x 308.7116 -y 287.23032 -z 4
n -t 0.0 -s 19 -S UP -v circle -c blue -x 136.92552 -y 181.47096 -z 4
n -t 0.0 -s 39 -S UP -v circle -c blue -x 218.76701 -y 339.07425 -z 4
n -t 0.0 -s 79 -S UP -v circle -c blue -x 29.272884 -y 405.70316 -z 4
n -t 0.0 -s 159 -S UP -v circle -c blue -x 33.198833 -y 58.28652 -z 4
n -t 0.0 -s 160 -S UP -v circle -c blue -x 97.695885 -y 258.09305 -z 4
n -t 0.0 -s 80 -S UP -v circle -c blue -x 104.988365 -y 113.38231 -z 4
n -t 0.0 -s 161 -S UP -v circle -c blue -x 378.0497 -y 174.01855 -z 4
n -t 0.0 -s 162 -S UP -v circle -c blue -x 417.3206 -y 152.03986 -z 4
n -t 0.0 -s 40 -S UP -v circle -c blue -x 400.17896 -y 40.02568 -z 4
n -t 0.0 -s 81 -S UP -v circle -c blue -x 468.69095 -y 420.07712 -z 4
n -t 0.0 -s 163 -S UP -v circle -c blue -x 192.13676 -y 400.79706 -z 4
n -t 0.0 -s 164 -S UP -v circle -c blue -x 290.76425 -y 311.58 -z 4
n -t 0.0 -s 82 -S UP -v circle -c blue -x 396.51773 -y 172.21523 -z 4
n -t 0.0 -s 165 -S UP -v circle -c blue -x 213.33072 -y 33.29867 -z 4
n -t 0.0 -s 166 -S UP -v circle -c blue -x 21.813631 -y 422.22696 -z 4
n -t 0.0 -s 20 -S UP -v circle -c blue -x 69.38934 -y 160.88182 -z 4
n -t 0.0 -s 41 -S UP -v circle -c blue -x 277.17755 -y 300.47256 -z 4
n -t 0.0 -s 83 -S UP -v circle -c blue -x 346.97464 -y 473.33484 -z 4
n -t 0.0 -s 167 -S UP -v circle -c blue -x 466.28912 -y 498.29855 -z 4
n -t 0.0 -s 168 -S UP -v circle -c blue -x 416.7714 -y 234.73883 -z 4
n -t 0.0 -s 84 -S UP -v circle -c blue -x 289.1366 -y 83.39372 -z 4
n -t 0.0 -s 169 -S UP -v circle -c blue -x 28.551132 -y 294.80978 -z 4
n -t 0.0 -s 170 -S UP -v circle -c blue -x 203.20868 -y 160.18665 -z 4
n -t 0.0 -s 42 -S UP -v circle -c blue -x 445.58337 -y 342.29587 -z 4
n -t 0.0 -s 85 -S UP -v circle -c blue -x 150.26605 -y 424.05405 -z 4
n -t 0.0 -s 171 -S UP -v circle -c blue -x 24.582386 -y 374.29007 -z 4
n -t 0.0 -s 172 -S UP -v circle -c blue -x 108.09532 -y 379.4639 -z 4
n -t 0.0 -s 86 -S UP -v circle -c blue -x 105.42297 -y 6.9466534 -z 4
n -t 0.0 -s 173 -S UP -v circle -c blue -x 407.95218 -y 115.14687 -z 4
n -t 0.0 -s 174 -S UP -v circle -c blue -x 229.63634 -y 242.08939 -z 4
n -t 0.0 -s 10 -S UP -v circle -c blue -x 24.73545 -y 441.91922 -z 4
n -t 0.0 -s 21 -S UP -v circle -c blue -x 207.39815 -y 456.67365 -z 4
n -t 0.0 -s 43 -S UP -v circle -c blue -x 108.844604 -y 254.4004 -z 4
n -t 0.0 -s 87 -S UP -v circle -c blue -x 158.27704 -y 245.83707 -z 4
n -t 0.0 -s 175 -S UP -v circle -c blue -x 268.32437 -y 123.17356 -z 4
n -t 0.0 -s 176 -S UP -v circle -c blue -x 210.49812 -y 5.7914553 -z 4
n -t 0.0 -s 88 -S UP -v circle -c blue -x 129.63382 -y 392.83728 -z 4
n -t 0.0 -s 177 -S UP -v circle -c blue -x 388.24313 -y 324.81906 -z 4
n -t 0.0 -s 178 -S UP -v circle -c blue -x 35.385998 -y 461.7045 -z 4
n -t 0.0 -s 44 -S UP -v circle -c blue -x 162.5703 -y 126.29911 -z 4
n -t 0.0 -s 89 -S UP -v circle -c blue -x 68.36522 -y 71.92427 -z 4
n -t 0.0 -s 179 -S UP -v circle -c blue -x 493.24716 -y 75.14683 -z 4
n -t 0.0 -s 180 -S UP -v circle -c blue -x 221.1273 -y 440.77615 -z 4
n -t 0.0 -s 90 -S UP -v circle -c blue -x 171.84552 -y 124.26314 -z 4
n -t 0.0 -s 181 -S UP -v circle -c blue -x 76.424446 -y 302.85486 -z 4
n -t 0.0 -s 182 -S UP -v circle -c blue -x 313.32095 -y 72.467896 -z 4
n -t 0.0 -s 22 -S UP -v circle -c blue -x 442.78732 -y 9.275616 -z 4
n -t 0.0 -s 45 -S UP -v circle -c blue -x 108.69616 -y 226.79085 -z 4
n -t 0.0 -s 91 -S UP -v circle -c blue -x 73.14163 -y 237.46056 -z 4
n -t 0.0 -s 183 -S UP -v circle -c blue -x 19.20554 -y 375.74908 -z 4
n -t 0.0 -s 184 -S UP -v circle -c blue -x 28.847902 -y 285.87387 -z 4
n -t 0.0 -s 92 -S UP -v circle -c blue -x 465.28738 -y 141.33096 -z 4
n -t 0.0 -s 185 -S UP -v circle -c blue -x 478.37714 -y 120.590416 -z 4
n -t 0.0 -s 186 -S UP -v circle -c blue -x 299.52405 -y 201.39769 -z 4
n -t 0.0 -s 46 -S UP -v circle -c blue -x 171.09734 -y 182.47205 -z 4
n -t 0.0 -s 93 -S UP -v circle -c blue -x 445.12332 -y 129.63646 -z 4
n -t 0.0 -s 187 -S UP -v circle -c blue -x 114.69507 -y 39.339096 -z 4
n -t 0.0 -s 188 -S UP -v circle -c blue -x 348.15564 -y 155.0848 -z 4
n -t 0.0 -s 94 -S UP -v circle -c blue -x 260.73566 -y 34.9091 -z 4
n -t 0.0 -s 189 -S UP -v circle -c blue -x 221.09523 -y 161.62553 -z 4
n -t 0.0 -s 190 -S UP -v circle -c blue -x 116.278145 -y 251.14438 -z 4
n -t 0.0 -s 2 -S UP -v circle -c red -x 456.6531 -y 191.84282 -z 4
n -t 0.0 -s 5 -S UP -v circle -c red -x 294.08636 -y 127.82475 -z 4
n -t 0.0 -s 11 -S UP -v circle -c blue -x 38.69876 -y 214.63985 -z 4
n -t 0.0 -s 23 -S UP -v circle -c blue -x 431.6213 -y 420.60916 -z 4
n -t 0.0 -s 47 -S UP -v circle -c blue -x 418.97134 -y 311.04657 -z 4
n -t 0.0 -s 95 -S UP -v circle -c blue -x 83.78679 -y 420.5831 -z 4
n -t 0.0 -s 191 -S UP -v circle -c blue -x 383.68494 -y 381.97797 -z 4
n -t 0.0 -s 192 -S UP -v circle -c blue -x 222.785 -y 26.208311 -z 4
n -t 0.0 -s 96 -S UP -v circle -c blue -x 391.07724 -y 413.96182 -z 4
n -t 0.0 -s 193 -S UP -v circle -c blue -x 12.082159 -y 185.18752 -z 4
n -t 0.0 -s 194 -S UP -v circle -c blue -x 157.16147 -y 483.12354 -z 4
n -t 0.0 -s 48 -S UP -v circle -c blue -x 340.0967 -y 94.99082 -z 4
n -t 0.0 -s 97 -S UP -v circle -c blue -x 111.987175 -y 239.01958 -z 4
n -t 0.0 -s 195 -S UP -v circle -c blue -x 388.21872 -y 38.50457 -z 4
n -t 0.0 -s 196 -S UP -v circle -c blue -x 350.61453 -y 465.7844 -z 4
n -t 0.0 -s 98 -S UP -v circle -c blue -x 317.039 -y 32.220425 -z 4
n -t 0.0 -s 197 -S UP -v circle -c blue -x 355.70163 -y 263.52078 -z 4
n -t 0.0 -s 198 -S UP -v circle -c blue -x 256.33823 -y 379.46313 -z 4
n -t 0.0 -s 24 -S UP -v circle -c blue -x 35.051376 -y 274.27396 -z 4
n -t 0.0 -s 49 -S UP -v circle -c blue -x 215.18489 -y 420.76526 -z 4
n -t 0.0 -s 99 -S UP -v circle -c blue -x 76.04039 -y 333.54788 -z 4
n -t 0.0 -s 199 -S UP -v circle -c blue -x 151.81795 -y 21.033466 -z 4
n -t 0.0 -s 200 -S UP -v circle -c blue -x 247.5847 -y 244.64336 -z 4
n -t 0.0 -s 100 -S UP -v circle -c blue -x 107.09775 -y 389.8678 -z 4
n -t 0.0 -s 201 -S UP -v circle -c blue -x 238.16878 -y 190.42427 -z 4
n -t 0.0 -s 202 -S UP -v circle -c blue -x 283.05118 -y 114.40837 -z 4
n -t 0.0 -s 50 -S UP -v circle -c blue -x 346.83597 -y 316.61102 -z 4
n -t 0.0 -s 101 -S UP -v circle -c blue -x 283.0924 -y 256.54355 -z 4
n -t 0.0 -s 203 -S UP -v circle -c blue -x 325.9299 -y 481.67108 -z 4
n -t 0.0 -s 204 -S UP -v circle -c blue -x 425.08234 -y 195.4582 -z 4
n -t 0.0 -s 102 -S UP -v circle -c blue -x 209.03578 -y 207.79256 -z 4
n -t 0.0 -s 205 -S UP -v circle -c blue -x 200.38545 -y 327.6883 -z 4
n -t 0.0 -s 206 -S UP -v circle -c blue -x 341.87338 -y 26.862026 -z 4
n -t 0.0 -s 12 -S UP -v circle -c blue -x 463.2789 -y 389.59006 -z 4
n -t 0.0 -s 25 -S UP -v circle -c blue -x 335.128 -y 287.60544 -z 4
n -t 0.0 -s 51 -S UP -v circle -c blue -x 108.26447 -y 197.92435 -z 4
n -t 0.0 -s 103 -S UP -v circle -c blue -x 172.30087 -y 305.24207 -z 4
n -t 0.0 -s 207 -S UP -v circle -c blue -x 204.49382 -y 0.9378791 -z 4
n -t 0.0 -s 208 -S UP -v circle -c blue -x 302.60806 -y 76.292755 -z 4
n -t 0.0 -s 104 -S UP -v circle -c blue -x 3.6066175 -y 62.25252 -z 4
n -t 0.0 -s 209 -S UP -v circle -c blue -x 440.96948 -y 428.93536 -z 4
n -t 0.0 -s 210 -S UP -v circle -c blue -x 439.45203 -y 374.89786 -z 4
n -t 0.0 -s 52 -S UP -v circle -c blue -x 7.8659353 -y 276.65796 -z 4
n -t 0.0 -s 105 -S UP -v circle -c blue -x 54.726513 -y 62.373222 -z 4
n -t 0.0 -s 211 -S UP -v circle -c blue -x 440.1563 -y 335.19995 -z 4
n -t 0.0 -s 212 -S UP -v circle -c blue -x 15.532822 -y 194.85959 -z 4
n -t 0.0 -s 106 -S UP -v circle -c blue -x 391.24234 -y 299.38458 -z 4
n -t 0.0 -s 213 -S UP -v circle -c blue -x 330.59662 -y 256.24893 -z 4