# Trace file generated by Jist/Swans Version 1.0.6. at Fri Jul 26 20:32:33 BRT 2013
V -t * -v 1.0a5 -a 0
W -t * -x 410 -y 410
A -t * -n 1 -p 0 -o 0xffffffff -c 31 -a 1
A -t * -h 1 -m 2147483647 -s 0
n -t 0.0 -s 1 -S UP -v circle -c red -x 65.814735 -y 316.48526 -z 4
n -t 0.0 -s 2 -S UP -v circle -c red -x 223.8343 -y 434.16394 -z 4
n -t 0.0 -s 3 -S UP -v circle -c red -x 246.58948 -y 141.46176 -z 4
n -t 0.0 -s 4 -S UP -v circle -c red -x 134.58237 -y 289.06015 -z 4
n -t 0.0 -s 5 -S UP -v circle -c red -x 468.4219 -y 190.32735 -z 4
n -t 0.0 -s 6 -S UP -v circle -c red -x 414.3081 -y 259.80753 -z 4
n -t 0.0 -s 7 -S UP -v circle -c red -x 481.31915 -y 122.45354 -z 4
n -t 0.0 -s 8 -S UP -v circle -c red -x 128.98201 -y 106.00814 -z 4
n -t 0.0 -s 9 -S UP -v circle -c blue -x 299.05652 -y 88.0481 -z 4
n -t 0.0 -s 10 -S UP -v circle -c blue -x 315.12338 -y 53.93216 -z 4
n -t 0.0 -s 11 -S UP -v circle -c blue -x 409.57263 -y 254.46185 -z 4
n -t 0.0 -s 12 -S UP -v circle -c blue -x 342.23447 -y 254.72357 -z 4
n -t 0.0 -s 13 -S UP -v circle -c blue -x 375.65576 -y 235.80923 -z 4
n -t 0.0 -s 14 -S UP -v circle -c blue -x 197.89677 -y 433.39862 -z 4
n -t 0.0 -s 15 -S UP -v circle -c blue -x 2.9195547 -y 219.87271 -z 4
n -t 0.0 -s 16 -S UP -v circle -c blue -x 145.88696 -y 408.02203 -z 4
n -t 0.0 -s 17 -S UP -v circle -c blue -x 25.414108 -y 102.85598 -z 4
n -t 0.0 -s 18 -S UP -v circle -c blue -x 179.70023 -y 386.3604 -z 4
n -t 0.0 -s 19 -S UP -v circle -c blue -x 225.9565 -y 335.52164 -z 4
n -t 0.0 -s 20 -S UP -v circle -c blue -x 49.968063 -y 210.04802 -z 4
n -t 0.0 -s 21 -S UP -v circle -c blue -x 404.81784 -y 373.99954 -z 4
n -t 0.0 -s 22 -S UP -v circle -c blue -x 459.1214 -y 406.92227 -z 4
n -t 0.0 -s 23 -S UP -v circle -c blue -x 231.01181 -y 137.06267 -z 4
n -t 0.0 -s 24 -S UP -v circle -c blue -x 435.31003 -y 87.82429 -z 4
n -t 0.0 -s 25 -S UP -v circle -c blue -x 232.14078 -y 447.46603 -z 4
n -t 0.0 -s 26 -S UP -v circle -c blue -x 260.36682 -y 231.00555 -z 4
n -t 0.0 -s 27 -S UP -v circle -c blue -x 486.43732 -y 178.13351 -z 4
n -t 0.0 -s 28 -S UP -v circle -c blue -x 294.15317 -y 495.5887 -z 4
n -t 0.0 -s 29 -S UP -v circle -c blue -x 91.96133 -y 311.2152 -z 4
n -t 0.0 -s 30 -S UP -v circle -c blue -x 215.89133 -y 194.61375 -z 4
n -t 0.0 -s 31 -S UP -v circle -c blue -x 78.36959 -y 27.548044 -z 4
n -t 0.0 -s 32 -S UP -v circle -c blue -x 268.3542 -y 401.44296 -z 4
n -t 0.0 -s 33 -S UP -v circle -c blue -x 354.56403 -y 180.61797 -z 4
n -t 0.0 -s 34 -S UP -v circle -c blue -x 414.62057 -y 113.135185 -z 4
n -t 0.0 -s 35 -S UP -v circle -c blue -x 316.95844 -y 329.0942 -z 4
n -t 0.0 -s 36 -S UP -v circle -c blue -x 91.41556 -y 117.34179 -z 4
n -t 0.0 -s 37 -S UP -v circle -c blue -x 277.01245 -y 138.29141 -z 4
n -t 0.0 -s 38 -S UP -v circle -c blue -x 105.03903 -y 410.88422 -z 4
n -t 0.0 -s 39 -S UP -v circle -c blue -x 59.79663 -y 247.98802 -z 4
n -t 0.0 -s 40 -S UP -v circle -c blue -x 373.07065 -y 68.07971 -z 4
n -t 0.0 -s 41 -S UP -v circle -c blue -x 17.23215 -y 202.92613 -z 4
n -t 0.0 -s 42 -S UP -v circle -c blue -x 70.24878 -y 13.775229 -z 4
n -t 0.0 -s 43 -S UP -v circle -c blue -x 337.65002 -y 165.63269 -z 4
n -t 0.0 -s 44 -S UP -v circle -c blue -x 13.306438 -y 292.68713 -z 4
n -t 0.0 -s 45 -S UP -v circle -c blue -x 97.618164 -y 268.09897 -z 4
n -t 0.0 -s 46 -S UP -v circle -c blue -x 485.56158 -y 254.83922 -z 4
n -t 0.0 -s 47 -S UP -v circle -c blue -x 430.57397 -y 100.05352 -z 4
n -t 0.0 -s 48 -S UP -v circle -c blue -x 396.4728 -y 372.52524 -z 4
n -t 0.0 -s 49 -S UP -v circle -c blue -x 300.4819 -y 194.35173 -z 4
n -t 0.0 -s 50 -S UP -v circle -c blue -x 128.26776 -y 232.23448 -z 4
n -t 0.0 -s 51 -S UP -v circle -c blue -x 496.116 -y 23.2279 -z 4
n -t 0.0 -s 52 -S UP -v circle -c blue -x 395.52362 -y 84.3744 -z 4
n -t 0.0 -s 53 -S UP -v circle -c blue -x 64.07848 -y 8.224577 -z 4
n -t 0.0 -s 54 -S UP -v circle -c blue -x 133.93364 -y 202.46944 -z 4
n -t 0.0 -s 55 -S UP -v circle -c blue -x 195.54326 -y 18.501759 -z 4
n -t 0.0 -s 56 -S UP -v circle -c blue -x 111.45329 -y 383.9385 -z 4
n -t 0.0 -s 57 -S UP -v circle -c blue -x 175.00565 -y 160.46959 -z 4
n -t 0.0 -s 58 -S UP -v circle -c blue -x 83.91044 -y 187.74661 -z 4
n -t 0.0 -s 59 -S UP -v circle -c blue -x 498.89563 -y 71.38157 -z 4
n -t 0.0 -s 60 -S UP -v circle -c blue -x 183.63792 -y 335.44275 -z 4
n -t 0.0 -s 61 -S UP -v circle -c blue -x 420.4425 -y 122.328606 -z 4
n -t 0.0 -s 62 -S UP -v circle -c blue -x 64.695 -y 25.653957 -z 4
n -t 0.0 -s 63 -S UP -v circle -c blue -x 475.1542 -y 215.21396 -z 4
n -t 0.0 -s 64 -S UP -v circle -c blue -x 433.05817 -y 316.37988 -z 4
n -t 0.0 -s 65 -S UP -v circle -c blue -x 371.9954 -y 253.54611 -z 4
n -t 0.0 -s 66 -S UP -v circle -c blue -x 461.3648 -y 91.87004 -z 4
n -t 0.0 -s 67 -S UP -v circle -c blue -x 389.92865 -y 259.61224 -z 4
n -t 0.0 -s 68 -S UP -v circle -c blue -x 42.27814 -y 242.96529 -z 4
n -t 0.0 -s 69 -S UP -v circle -c blue -x 121.845634 -y 358.69678 -z 4
n -t 0.0 -s 70 -S UP -v circle -c blue -x 134.51611 -y 382.11713 -z 4
n -t 0.0 -s 71 -S UP -v circle -c blue -x 339.80392 -y 413.9619 -z 4
n -t 0.0 -s 72 -S UP -v circle -c blue -x 433.5706 -y 181.48914 -z 4
n -t 0.0 -s 73 -S UP -v circle -c blue -x 81.44304 -y 159.44347 -z 4
n -t 0.0 -s 74 -S UP -v circle -c blue -x 282.96716 -y 48.286705 -z 4
n -t 0.0 -s 75 -S UP -v circle -c blue -x 449.85153 -y 280.9356 -z 4
n -t 0.0 -s 76 -S UP -v circle -c blue -x 479.727 -y 33.50824 -z 4
n -t 0.0 -s 77 -S UP -v circle -c blue -x 383.1667 -y 49.50091 -z 4
n -t 0.0 -s 78 -S UP -v circle -c blue -x 212.94434 -y 345.47922 -z 4
n -t 0.0 -s 79 -S UP -v circle -c blue -x 348.7974 -y 435.66876 -z 4
n -t 0.0 -s 80 -S UP -v circle -c blue -x 170.85748 -y 8.69897 -z 4
n -t 0.0 -s 81 -S UP -v circle -c blue -x 496.1736 -y 466.36588 -z 4
n -t 0.0 -s 82 -S UP -v circle -c blue -x 418.55222 -y 261.6401 -z 4
n -t 0.0 -s 83 -S UP -v circle -c blue -x 214.95325 -y 125.0974 -z 4
n -t 0.0 -s 84 -S UP -v circle -c blue -x 364.8819 -y 328.19638 -z 4
n -t 0.0 -s 85 -S UP -v circle -c blue -x 379.08252 -y 9.2846155 -z 4
n -t 0.0 -s 86 -S UP -v circle -c blue -x 328.0343 -y 369.54193 -z 4
n -t 0.0 -s 87 -S UP -v circle -c blue -x 155.25537 -y 18.929869 -z 4
n -t 0.0 -s 88 -S UP -v circle -c blue -x 269.43256 -y 33.37431 -z 4
n -t 0.0 -s 89 -S UP -v circle -c blue -x 344.19083 -y 56.46354 -z 4
n -t 0.0 -s 90 -S UP -v circle -c blue -x 285.6645 -y 162.05302 -z 4
n -t 0.0 -s 91 -S UP -v circle -c blue -x 39.618374 -y 418.8236 -z 4
n -t 0.0 -s 92 -S UP -v circle -c blue -x 338.53302 -y 410.27402 -z 4
n -t 0.0 -s 93 -S UP -v circle -c blue -x 300.59836 -y 86.18942 -z 4
n -t 0.0 -s 94 -S UP -v circle -c blue -x 320.06552 -y 305.9489 -z 4
n -t 0.0 -s 95 -S UP -v circle -c blue -x 163.29994 -y 385.5594 -z 4
n -t 0.0 -s 96 -S UP -v circle -c blue -x 318.68802 -y 378.26855 -z 4
n -t 0.0 -s 97 -S UP -v circle -c blue -x 176.91203 -y 186.31 -z 4
n -t 0.0 -s 98 -S UP -v circle -c blue -x 496.33292 -y 376.9662 -z 4
n -t 0.0 -s 99 -S UP -v circle -c blue -x 251.08615 -y 375.35455 -z 4
n -t 0.0 -s 100 -S UP -v circle -c blue -x 245.91243 -y 233.0539 -z 4
n -t 0.0 -s 101 -S UP -v circle -c blue -x 98.132286 -y 344.43707 -z 4
n -t 0.0 -s 102 -S UP -v circle -c blue -x 161.55008 -y 219.36217 -z 4
n -t 0.0 -s 103 -S UP -v circle -c blue -x 348.84402 -y 185.928 -z 4
n -t 0.0 -s 104 -S UP -v circle -c blue -x 277.74902 -y 378.6868 -z 4
n -t 0.0 -s 105 -S UP -v circle -c blue -x 305.87155 -y 47.268063 -z 4
n -t 0.0 -s 106 -S UP -v circle -c blue -x 171.11234 -y 106.93783 -z 4
n -t 0.0 -s 107 -S UP -v circle -c blue -x 70.35312 -y 300.52805 -z 4
n -t 0.0 -s 108 -S UP -v circle -c blue -x 342.4669 -y 131.14273 -z 4
n -t 0.0 -s 109 -S UP -v circle -c blue -x 366.23193 -y 481.58334 -z 4
n -t 0.0 -s 110 -S UP -v circle -c blue -x 226.73386 -y 369.2953 -z 4
n -t 0.0 -s 111 -S UP -v circle -c blue -x 480.3142 -y 83.8576 -z 4
n -t 0.0 -s 112 -S UP -v circle -c blue -x 201.4035 -y 326.7471 -z 4
n -t 0.0 -s 113 -S UP -v circle -c blue -x 405.46994 -y 221.76073 -z 4
n -t 0.0 -s 114 -S UP -v circle -c blue -x 266.09528 -y 87.0452 -z 4
n -t 0.0 -s 115 -S UP -v circle -c blue -x 98.04791 -y 227.67683 -z 4
n -t 0.0 -s 116 -S UP -v circle -c blue -x 149.80782 -y 322.8357 -z 4
n -t 0.0 -s 117 -S UP -v circle -c blue -x 450.00092 -y 209.05963 -z 4
n -t 0.0 -s 118 -S UP -v circle -c blue -x 418.79437 -y 352.74326 -z 4
n -t 0.0 -s 119 -S UP -v circle -c blue -x 100.63425 -y 365.83847 -z 4
n -t 0.0 -s 120 -S UP -v circle -c blue -x 226.56024 -y 35.13044 -z 4
n -t 0.0 -s 121 -S UP -v circle -c blue -x 424.34778 -y 76.461914 -z 4
n -t 0.0 -s 122 -S UP -v circle -c blue -x 383.59665 -y 440.5284 -z 4
n -t 0.0 -s 123 -S UP -v circle -c blue -x 289.1058 -y 378.60672 -z 4
n -t 0.0 -s 124 -S UP -v circle -c blue -x 463.79123 -y 416.56937 -z 4
n -t 0.0 -s 125 -S UP -v circle -c blue -x 478.3141 -y 449.51694 -z 4
n -t 0.0 -s 126 -S UP -v circle -c blue -x 187.93803 -y 26.750565 -z 4
n -t 0.0 -s 127 -S UP -v circle -c blue -x 256.79813 -y 84.334465 -z 4
n -t 0.0 -s 128 -S UP -v circle -c blue -x 383.68893 -y 245.70944 -z 4
n -t 0.0 -s 129 -S UP -v circle -c blue -x 72.96151 -y 258.4231 -z 4
n -t 0.0 -s 130 -S UP -v circle -c blue -x 162.21446 -y 356.3175 -z 4
n -t 0.0 -s 131 -S UP -v circle -c blue -x 465.0717 -y 272.9206 -z 4
n -t 0.0 -s 132 -S UP -v circle -c blue -x 141.68098 -y 259.3242 -z 4
n -t 0.0 -s 133 -S UP -v circle -c blue -x 153.89893 -y 329.48898 -z 4
n -t 0.0 -s 134 -S UP -v circle -c blue -x 98.60045 -y 455.0572 -z 4
n -t 0.0 -s 135 -S UP -v circle -c blue -x 88.35977 -y 369.9423 -z 4
n -t 0.0 -s 136 -S UP -v circle -c blue -x 422.69516 -y 33.447266 -z 4
n -t 0.0 -s 137 -S UP -v circle -c blue -x 279.9399 -y 85.15152 -z 4
n -t 0.0 -s 138 -S UP -v circle -c blue -x 466.9702 -y 147.08284 -z 4
n -t 0.0 -s 139 -S UP -v circle -c blue -x 37.85911 -y 432.95407 -z 4
n -t 0.0 -s 140 -S UP -v circle -c blue -x 420.34848 -y 89.86714 -z 4
n -t 0.0 -s 141 -S UP -v circle -c blue -x 255.36171 -y 70.88941 -z 4
n -t 0.0 -s 142 -S UP -v circle -c blue -x 228.95244 -y 247.96402 -z 4
n -t 0.0 -s 143 -S UP -v circle -c blue -x 11.168539 -y 172.16971 -z 4
n -t 0.0 -s 144 -S UP -v circle -c blue -x 467.68292 -y 480.9566 -z 4
n -t 0.0 -s 145 -S UP -v circle -c blue -x 134.79958 -y 244.65514 -z 4
n -t 0.0 -s 146 -S UP -v circle -c blue -x 225.23152 -y 369.45026 -z 4
n -t 0.0 -s 147 -S UP -v circle -c blue -x 243.79414 -y 256.58798 -z 4
n -t 0.0 -s 148 -S UP -v circle -c blue -x 142.46175 -y 84.72499 -z 4
n -t 0.0 -s 149 -S UP -v circle -c blue -x 431.2362 -y 9.858489 -z 4
n -t 0.0 -s 150 -S UP -v circle -c blue -x 310.9152 -y 289.55746 -z 4
n -t 0.0 -s 151 -S UP -v circle -c blue -x 357.6781 -y 313.5992 -z 4
n -t 0.0 -s 152 -S UP -v circle -c blue -x 440.0586 -y 24.1099 -z 4
n -t 0.0 -s 153 -S UP -v circle -c blue -x 459.59644 -y 346.47046 -z 4
n -t 0.0 -s 154 -S UP -v circle -c blue -x 379.12057 -y 313.02094 -z 4
n -t 0.0 -s 155 -S UP -v circle -c blue -x 311.77118 -y 255.20415 -z 4
n -t 0.0 -s 156 -S UP -v circle -c blue -x 392.61722 -y 9.778917 -z 4
n -t 0.0 -s 157 -S UP -v circle -c blue -x 491.1333 -y 96.47584 -z 4
n -t 0.0 -s 158 -S UP -v circle -c blue -x 143.8876 -y 471.43466 -z 4
n -t 0.0 -s 159 -S UP -v circle -c blue -x 460.15695 -y 367.2019 -z 4
n -t 0.0 -s 160 -S UP -v circle -c blue -x 314.42874 -y 494.09106 -z 4
n -t 0.0 -s 161 -S UP -v circle -c blue -x 277.09286 -y 489.68866 -z 4
n -t 0.0 -s 162 -S UP -v circle -c blue -x 50.111027 -y 289.83673 -z 4
n -t 0.0 -s 163 -S UP -v circle -c blue -x 114.35011 -y 479.0493 -z 4
n -t 0.0 -s 164 -S UP -v circle -c blue -x 170.3673 -y 315.37115 -z 4
n -t 0.0 -s 165 -S UP -v circle -c blue -x 24.069696 -y 353.85394 -z 4
n -t 0.0 -s 166 -S UP -v circle -c blue -x 440.38873 -y 177.06946 -z 4
n -t 0.0 -s 167 -S UP -v circle -c blue -x 288.12842 -y 491.56805 -z 4
n -t 0.0 -s 168 -S UP -v circle -c blue -x 396.74573 -y 6.2796474 -z 4
n -t 0.0 -s 169 -S UP -v circle -c blue -x 68.01751 -y 138.99547 -z 4
n -t 0.0 -s 170 -S UP -v circle -c blue -x 136.51689 -y 280.93173 -z 4
n -t 0.0 -s 171 -S UP -v circle -c blue -x 475.6216 -y 77.27325 -z 4
n -t 0.0 -s 172 -S UP -v circle -c blue -x 352.0966 -y 137.81413 -z 4
n -t 0.0 -s 173 -S UP -v circle -c blue -x 299.05338 -y 400.1283 -z 4
n -t 0.0 -s 174 -S UP -v circle -c blue -x 386.8188 -y 385.95966 -z 4
n -t 0.0 -s 175 -S UP -v circle -c blue -x 376.3689 -y 483.8192 -z 4
n -t 0.0 -s 176 -S UP -v circle -c blue -x 439.15317 -y 471.35767 -z 4
n -t 0.0 -s 177 -S UP -v circle -c blue -x 334.99615 -y 224.74077 -z 4
n -t 0.0 -s 178 -S UP -v circle -c blue -x 189.57654 -y 121.61091 -z 4
n -t 0.0 -s 179 -S UP -v circle -c blue -x 434.66992 -y 64.906654 -z 4
n -t 0.0 -s 180 -S UP -v circle -c blue -x 318.7005 -y 295.19293 -z 4
n -t 0.0 -s 181 -S UP -v circle -c blue -x 28.004616 -y 261.86035 -z 4
n -t 0.0 -s 182 -S UP -v circle -c blue -x 327.54184 -y 391.6968 -z 4
n -t 0.0 -s 183 -S UP -v circle -c blue -x 404.79196 -y 434.96793 -z 4
n -t 0.0 -s 184 -S UP -v circle -c blue -x 30.985386 -y 129.03026 -z 4
n -t 0.0 -s 185 -S UP -v circle -c blue -x 115.73207 -y 8.053273 -z 4
n -t 0.0 -s 186 -S UP -v circle -c blue -x 38.834393 -y 32.0957 -z 4
n -t 0.0 -s 187 -S UP -v circle -c blue -x 388.46033 -y 494.04404 -z 4
n -t 0.0 -s 188 -S UP -v circle -c blue -x 251.01865 -y 490.3515 -z 4
n -t 0.0 -s 189 -S UP -v circle -c blue -x 196.09004 -y 332.36777 -z 4
n -t 0.0 -s 190 -S UP -v circle -c blue -x 105.49262 -y 253.09834 -z 4
n -t 0.0 -s 191 -S UP -v circle -c blue -x 416.54626 -y 497.49072 -z 4
n -t 0.0 -s 192 -S UP -v circle -c blue -x 330.37344 -y 129.75023 -z 4
n -t 0.0 -s 193 -S UP -v circle -c blue -x 213.01364 -y 377.01593 -z 4
n -t 0.0 -s 194 -S UP -v circle -c blue -x 262.52432 -y 425.178 -z 4
n -t 0.0 -s 195 -S UP -v circle -c blue -x 162.98003 -y 351.49796 -z 4
n -t 0.0 -s 196 -S UP -v circle -c blue -x 219.97664 -y 58.953346 -z 4
n -t 0.0 -s 197 -S UP -v circle -c blue -x 289.54843 -y 453.4991 -z 4
n -t 0.0 -s 198 -S UP -v circle -c blue -x 217.51181 -y 222.54321 -z 4
n -t 0.0 -s 199 -S UP -v circle -c blue -x 285.65622 -y 399.87973 -z 4
n -t 0.0 -s 200 -S UP -v circle -c blue -x 325.91092 -y 314.83743 -z 4
n -t 0.0 -s 1 -S UP -v circle -c red -x 65.814735 -y 316.48526 -z 4
n -t 0.0 -s 3 -S UP -v circle -c red -x 246.58948 -y 141.46176 -z 4
n -t 0.0 -s 7 -S UP -v circle -c red -x 481.31915 -y 122.45354 -z 4
n -t 0.0 -s 15 -S UP -v circle -c blue -x 2.9195547 -y 219.87271 -z 4
n -t 0.0 -s 31 -S UP -v circle -c blue -x 78.36959 -y 27.548044 -z 4
n -t 0.0 -s 63 -S UP -v circle -c blue -x 475.1542 -y 215.21396 -z 4
n -t 0.0 -s 127 -S UP -v circle -c blue -x 256.79813 -y 84.334465 -z 4
n -t 0.0 -s 128 -S UP -v circle -c blue -x 383.68893 -y 245.70944 -z 4
n -t 0.0 -s 64 -S UP -v circle -c blue -x 433.05817 -y 316.37988 -z 4
n -t 0.0 -s 129 -S UP -v circle -c blue -x 72.96151 -y 258.4231 -z 4
n -t 0.0 -s 130 -S UP -v circle -c blue -x 162.21446 -y 356.3175 -z 4
n -t 0.0 -s 32 -S UP -v circle -c blue -x 268.3542 -y 401.44296 -z 4
n -t 0.0 -s 65 -S UP -v circle -c blue -x 371.9954 -y 253.54611 -z 4
n -t 0.0 -s 131 -S UP -v circle -c blue -x 465.0717 -y 272.9206 -z 4
n -t 0.0 -s 132 -S UP -v circle -c blue -x 141.68098 -y 259.3242 -z 4
n -t 0.0 -s 66 -S UP -v circle -c blue -x 461.3648 -y 91.87004 -z 4
n -t 0.0 -s 133 -S UP -v circle -c blue -x 153.89893 -y 329.48898 -z 4
n -t 0.0 -s 134 -S UP -v circle -c blue -x 98.60045 -y 455.0572 -z 4
n -t 0.0 -s 16 -S UP -v circle -c blue -x 145.88696 -y 408.02203 -z 4
n -t 0.0 -s 33 -S UP -v circle -c blue -x 354.56403 -y 180.61797 -z 4
n -t 0.0 -s 67 -S UP -v circle -c blue -x 389.92865 -y 259.61224 -z 4
n -t 0.0 -s 135 -S UP -v circle -c blue -x 88.35977 -y 369.9423 -z 4
n -t 0.0 -s 136 -S UP -v circle -c blue -x 422.69516 -y 33.447266 -z 4
n -t 0.0 -s 68 -S UP -v circle -c blue -x 42.27814 -y 242.96529 -z 4
n -t 0.0 -s 137 -S UP -v circle -c blue -x 279.9399 -y 85.15152 -z 4
n -t 0.0 -s 138 -S UP -v circle -c blue -x 466.9702 -y 147.08284 -z 4
n -t 0.0 -s 34 -S UP -v circle -c blue -x 414.62057 -y 113.135185 -z 4
n -t 0.0 -s 69 -S UP -v circle -c blue -x 121.845634 -y 358.69678 -z 4
n -t 0.0 -s 139 -S UP -v circle -c blue -x 37.85911 -y 432.95407 -z 4
n -t 0.0 -s 140 -S UP -v circle -c blue -x 420.34848 -y 89.86714 -z 4
n -t 0.0 -s 70 -S UP -v circle -c blue -x 134.51611 -y 382.11713 -z 4
n -t 0.0 -s 141 -S UP -v circle -c blue -x 255.36171 -y 70.88941 -z 4
n -t 0.0 -s 142 -S UP -v circle -c blue -x 228.95244 -y 247.96402 -z 4
n -t 0.0 -s 8 -S UP -v circle -c red -x 128.98201 -y 106.00814 -z 4
n -t 0.0 -s 17 -S UP -v circle -c blue -x 25.414108 -y 102.85598 -z 4
n -t 0.0 -s 35 -S UP -v circle -c blue -x 316.95844 -y 329.0942 -z 4
n -t 0.0 -s 71 -S UP -v circle -c blue -x 339.80392 -y 413.9619 -z 4
n -t 0.0 -s 143 -S UP -v circle -c blue -x 11.168539 -y 172.16971 -z 4
n -t 0.0 -s 144 -S UP -v circle -c blue -x 467.68292 -y 480.9566 -z 4
n -t 0.0 -s 72 -S UP -v circle -c blue -x 433.5706 -y 181.48914 -z 4
n -t 0.0 -s 145 -S UP -v circle -c blue -x 134.79958 -y 244.65514 -z 4
n -t 0.0 -s 146 -S UP -v circle -c blue -x 225.23152 -y 369.45026 -z 4
n -t 0.0 -s 36 -S UP -v circle -c blue -x 91.41556 -y 117.34179 -z 4
n -t 0.0 -s 73 -S UP -v circle -c blue -x 81.44304 -y 159.44347 -z 4
n -t 0.0 -s 147 -S UP -v circle -c blue -x 243.79414 -y 256.58798 -z 4
n -t 0.0 -s 148 -S UP -v circle -c blue -x 142.46175 -y 84.72499 -z 4
n -t 0.0 -s 74 -S UP -v circle -c blue -x 282.96716 -y 48.286705 -z 4
n -t 0.0 -s 149 -S UP -v circle -c blue -x 431.2362 -y 9.858489 -z 4
n -t 0.0 -s 150 -S UP -v circle -c blue -x 310.9152 -y 289.55746 -z 4
n -t 0.0 -s 18 -S UP -v circle -c blue -x 179.70023 -y 386.3604 -z 4
n -t 0.0 -s 37 -S UP -v circle -c blue -x 277.01245 -y 138.29141 -z 4
n -t 0.0 -s 75 -S UP -v circle -c blue -x 449.85153 -y 280.9356 -z 4
n -t 0.0 -s 151 -S UP -v circle -c blue -x 357.6781 -y 313.5992 -z 4
n -t 0.0 -s 152 -S UP -v circle -c blue -x 440.0586 -y 24.1099 -z 4
n -t 0.0 -s 76 -S UP -v circle -c blue -x 479.727 -y 33.50824 -z 4
n -t 0.0 -s 153 -S UP -v circle -c blue -x 459.59644 -y 346.47046 -z 4
n -t 0.0 -s 154 -S UP -v circle -c blue -x 379.12057 -y 313.02094 -z 4
n -t 0.0 -s 38 -S UP -v circle -c blue -x 105.03903 -y 410.88422 -z 4
n -t 0.0 -s 77 -S UP -v circle -c blue -x 383.1667 -y 49.50091 -z 4
n -t 0.0 -s 155 -S UP -v circle -c blue -x 311.77118 -y 255.20415 -z 4
n -t 0.0 -s 156 -S UP -v circle -c blue -x 392.61722 -y 9.778917 -z 4
n -t 0.0 -s 78 -S UP -v circle -c blue -x 212.94434 -y 345.47922 -z 4
n -t 0.0 -s 157 -S UP -v circle -c blue -x 491.1333 -y 96.47584 -z 4
n -t 0.0 -s 158 -S UP -v circle -c blue -x 143.8876 -y 471.43466 -z 4
n -t 0.0 -s 4 -S UP -v circle -c red -x 134.58237 -y 289.06015 -z 4
n -t 0.0 -s 9 -S UP -v circle -c blue -x 299.05652 -y 88.0481 -z 4
n -t 0.0 -s 19 -S UP -v circle -c blue -x 225.9565 -y 335.52164 -z 4
n -t 0.0 -s 39 -S UP -v circle -c blue -x 59.79663 -y 247.98802 -z 4
n -t 0.0 -s 79 -S UP -v circle -c blue -x 348.7974 -y 435.66876 -z 4
n -t 0.0 -s 159 -S UP -v circle -c blue -x 460.15695 -y 367.2019 -z 4
n -t 0.0 -s 160 -S UP -v circle -c blue -x 314.42874 -y 494.09106 -z 4
n -t 0.0 -s 80 -S UP -v circle -c blue -x 170.85748 -y 8.69897 -z 4
n -t 0.0 -s 161 -S UP -v circle -c blue -x 277.09286 -y 489.68866 -z 4
n -t 0.0 -s 162 -S UP -v circle -c blue -x 50.111027 -y 289.83673 -z 4
n -t 0.0 -s 40 -S UP -v circle -c blue -x 373.07065 -y 68.07971 -z 4
n -t 0.0 -s 81 -S UP -v circle -c blue -x 496.1736 -y 466.36588 -z 4
n -t 0.0 -s 163 -S UP -v circle -c blue -x 114.35011 -y 479.0493 -z 4
n -t 0.0 -s 164 -S UP -v circle -c blue -x 170.3673 -y 315.37115 -z 4
n -t 0.0 -s 82 -S UP -v circle -c blue -x 418.55222 -y 261.6401 -z 4
n -t 0.0 -s 165 -S UP -v circle -c blue -x 24.069696 -y 353.85394 -z 4
n -t 0.0 -s 166 -S UP -v circle -c blue -x 440.38873 -y 177.06946 -z 4
n -t 0.0 -s 20 -S UP -v circle -c blue -x 49.968063 -y 210.04802 -z 4
n -t 0.0 -s 41 -S UP -v circle -c blue -x 17.23215 -y 202.92613 -z 4
n -t 0.0 -s 83 -S UP -v circle -c blue -x 214.95325 -y 125.0974 -z 4
n -t 0.0 -s 167 -S UP -v circle -c blue -x 288.12842 -y 491.56805 -z 4
n -t 0.0 -s 168 -S UP -v circle -c blue -x 396.74573 -y 6.2796474 -z 4
n -t 0.0 -s 84 -S UP -v circle -c blue -x 364.8819 -y 328.19638 -z 4
n -t 0.0 -s 169 -S UP -v circle -c blue -x 68.01751 -y 138.99547 -z 4
n -t 0.0 -s 170 -S UP -v circle -c blue -x 136.51689 -y 280.93173 -z 4
n -t 0.0 -s 42 -S UP -v circle -c blue -x 70.24878 -y 13.775229 -z 4
n -t 0.0 -s 85 -S UP -v circle -c blue -x 379.08252 -y 9.2846155 -z 4
n -t 0.0 -s 171 -S UP -v circle -c blue -x 475.6216 -y 77.27325 -z 4
n -t 0.0 -s 172 -S UP -v circle -c blue -x 352.0966 -y 137.81413 -z 4
n -t 0.0 -s 86 -S UP -v circle -c blue -x 328.0343 -y 369.54193 -z 4
n -t 0.0 -s 173 -S UP -v circle -c blue -x 299.05338 -y 400.1283 -z 4
n -t 0.0 -s 174 -S UP -v circle -c blue -x 386.8188 -y 385.95966 -z 4
n -t 0.0 -s 10 -S UP -v circle -c blue -x 315.12338 -y 53.93216 -z 4
n -t 0.0 -s 21 -S UP -v circle -c blue -x 404.81784 -y 373.99954 -z 4
n -t 0.0 -s 43 -S UP -v circle -c blue -x 337.65002 -y 165.63269 -z 4
n -t 0.0 -s 87 -S UP -v circle -c blue -x 155.25537 -y 18.929869 -z 4
n -t 0.0 -s 175 -S UP -v circle -c blue -x 376.3689 -y 483.8192 -z 4
n -t 0.0 -s 176 -S UP -v circle -c blue -x 439.15317 -y 471.35767 -z 4
n -t 0.0 -s 88 -S UP -v circle -c blue -x 269.43256 -y 33.37431 -z 4
n -t 0.0 -s 177 -S UP -v circle -c blue -x 334.99615 -y 224.74077 -z 4
n -t 0.0 -s 178 -S UP -v circle -c blue -x 189.57654 -y 121.61091 -z 4
n -t 0.0 -s 44 -S UP -v circle -c blue -x 13.306438 -y 292.68713 -z 4
n -t 0.0 -s 89 -S UP -v circle -c blue -x 344.19083 -y 56.46354 -z 4
n -t 0.0 -s 179 -S UP -v circle -c blue -x 434.66992 -y 64.906654 -z 4
n -t 0.0 -s 180 -S UP -v circle -c blue -x 318.7005 -y 295.19293 -z 4
n -t 0.0 -s 90 -S UP -v circle -c blue -x 285.6645 -y 162.05302 -z 4
n -t 0.0 -s 181 -S UP -v circle -c blue -x 28.004616 -y 261.86035 -z 4
n -t 0.0 -s 182 -S UP -v circle -c blue -x 327.54184 -y 391.6968 -z 4
n -t 0.0 -s 22 -S UP -v circle -c blue -x 459.1214 -y 406.92227 -z 4
n -t 0.0 -s 45 -S UP -v circle -c blue -x 97.618164 -y 268.09897 -z 4
n -t 0.0 -s 91 -S UP -v circle -c blue -x 39.618374 -y 418.8236 -z 4
n -t 0.0 -s 183 -S UP -v circle -c blue -x 404.79196 -y 434.96793 -z 4
n -t 0.0 -s 184 -S UP -v circle -c blue -x 30.985386 -y 129.03026 -z 4
n -t 0.0 -s 92 -S UP -v circle -c blue -x 338.53302 -y 410.27402 -z 4
n -t 0.0 -s 185 -S UP -v circle -c blue -x 115.73207 -y 8.053273 -z 4
n -t 0.0 -s 186 -S UP -v circle -c blue -x 38.834393 -y 32.0957 -z 4
n -t 0.0 -s 46 -S UP -v circle -c blue -x 485.56158 -y 254.83922 -z 4
n -t 0.0 -s 93 -S UP -v circle -c blue -x 300.59836 -y 86.18942 -z 4
n -t 0.0 -s 187 -S UP -v circle -c blue -x 388.46033 -y 494.04404 -z 4
n -t 0.0 -s 188 -S UP -v circle -c blue -x 251.01865 -y 490.3515 -z 4
n -t 0.0 -s 94 -S UP -v circle -c blue -x 320.06552 -y 305.9489 -z 4
n -t 0.0 -s 189 -S UP -v circle -c blue -x 196.09004 -y 332.36777 -z 4
n -t 0.0 -s 190 -S UP -v circle -c blue -x 105.49262 -y 253.09834 -z 4
n -t 0.0 -s 2 -S UP -v circle -c red -x 223.8343 -y 434.16394 -z 4
n -t 0.0 -s 5 -S UP -v circle -c red -x 468.4219 -y 190.32735 -z 4
n -t 0.0 -s 11 -S UP -v circle -c blue -x 409.57263 -y 254.46185 -z 4
n -t 0.0 -s 23 -S UP -v circle -c blue -x 231.01181 -y 137.06267 -z 4
n -t 0.0 -s 47 -S UP -v circle -c blue -x 430.57397 -y 100.05352 -z 4
n -t 0.0 -s 95 -S UP -v circle -c blue -x 163.29994 -y 385.5594 -z 4
n -t 0.0 -s 191 -S UP -v circle -c blue -x 416.54626 -y 497.49072 -z 4
n -t 0.0 -s 192 -S UP -v circle -c blue -x 330.37344 -y 129.75023 -z 4
n -t 0.0 -s 96 -S UP -v circle -c blue -x 318.68802 -y 378.26855 -z 4
n -t 0.0 -s 193 -S UP -v circle -c blue -x 213.01364 -y 377.01593 -z 4
n -t 0.0 -s 194 -S UP -v circle -c blue -x 262.52432 -y 425.178 -z 4
n -t 0.0 -s 48 -S UP -v circle -c blue -x 396.4728 -y 372.52524 -z 4
n -t 0.0 -s 97 -S UP -v circle -c blue -x 176.91203 -y 186.31 -z 4
n -t 0.0 -s 195 -S UP -v circle -c blue -x 162.98003 -y 351.49796 -z 4
n -t 0.0 -s 196 -S UP -v circle -c blue -x 219.97664 -y 58.953346 -z 4
n -t 0.0 -s 98 -S UP -v circle -c blue -x 496.33292 -y 376.9662 -z 4
n -t 0.0 -s 197 -S UP -v circle -c blue -x 289.54843 -y 453.4991 -z 4
n -t 0.0 -s 198 -S UP -v circle -c blue -x 217.51181 -y 222.54321 -z 4
n -t 0.0 -s 24 -S UP -v circle -c blue -x 435.31003 -y 87.82429 -z 4
n -t 0.0 -s 49 -S UP -v circle -c blue -x 300.4819 -y 194.35173 -z 4
n -t 0.0 -s 99 -S UP -v circle -c blue -x 251.08615 -y 375.35455 -z 4
n -t 0.0 -s 199 -S UP -v circle -c blue -x 285.65622 -y 399.87973 -z 4
n -t 0.0 -s 200 -S UP -v circle -c blue -x 325.91092 -y 314.83743 -z 4
n -t 0.0 -s 100 -S UP -v circle -c blue -x 245.91243 -y 233.0539 -z 4
n -t 0.0 -s 50 -S UP -v circle -c blue -x 128.26776 -y 232.23448 -z 4
n -t 0.0 -s 101 -S UP -v circle -c blue -x 98.132286 -y 344.43707 -z 4
n -t 0.0 -s 102 -S UP -v circle -c blue -x 161.55008 -y 219.36217 -z 4
n -t 0.0 -s 12 -S UP -v circle -c blue -x 342.23447 -y 254.72357 -z 4
n -t 0.0 -s 25 -S UP -v circle -c blue -x 232.14078 -y 447.46603 -z 4
n -t 0.0 -s 51 -S UP -v circle -c blue -x 496.116 -y 23.2279 -z 4
n -t 0.0 -s 103 -S UP -v circle -c blue -x 348.84402 -y 185.928 -z 4
n -t 0.0 -s 104 -S UP -v circle -c blue -x 277.74902 -y 378.6868 -z 4
n -t 0.0 -s 52 -S UP -v circle -c blue -x 395.52362 -y 84.3744 -z 4
n -t 0.0 -s 105 -S UP -v circle -c blue -x 305.87155 -y 47.268063 -z 4
n -t 0.0 -s 106 -S UP -v circle -c blue -x 171.11234 -y 106.93783 -z 4
n -t 0.0 -s 26 -S UP -v circle -c blue -x 260.36682 -y 231.00555 -z 4
n -t 0.0 -s 53 -S UP -v circle -c blue -x 64.07848 -y 8.224577 -z 4
n -t 0.0 -s 107 -S UP -v circle -c blue -x 70.35312 -y 300.52805 -z 4
n -t 0.0 -s 108 -S UP -v circle -c blue -x 342.4669 -y 131.14273 -z 4
n -t 0.0 -s 54 -S UP -v circle -c blue -x 133.93364 -y 202.46944 -z 4
n -t 0.0 -s 109 -S UP -v circle -c blue -x 366.23193 -y 481.58334 -z 4
n -t 0.0 -s 110 -S UP -v circle -c blue -x 226.73386 -y 369.2953 -z 4
n -t 0.0 -s 6 -S UP -v circle -c red -x 414.3081 -y 259.80753 -z 4
n -t 0.0 -s 13 -S UP -v circle -c blue -x 375.65576 -y 235.80923 -z 4
n -t 0.0 -s 27 -S UP -v circle -c blue -x 486.43732 -y 178.13351 -z 4
n -t 0.0 -s 55 -S UP -v circle -c blue -x 195.54326 -y 18.501759 -z 4
n -t 0.0 -s 111 -S UP -v circle -c blue -x 480.3142 -y 83.8576 -z 4
n -t 0.0 -s 112 -S UP -v circle -c blue -x 201.4035 -y 326.7471 -z 4
n -t 0.0 -s 56 -S UP -v circle -c blue -x 111.45329 -y 383.9385 -z 4
n -t 0.0 -s 113 -S UP -v circle -c blue -x 405.46994 -y 221.76073 -z 4
n -t 0.0 -s 114 -S UP -v circle -c blue -x 266.09528 -y 87.0452 -z 4
n -t 0.0 -s 28 -S UP -v circle -c blue -x 294.15317 -y 495.5887 -z 4
n -t 0.0 -s 57 -S UP -v circle -c blue -x 175.00565 -y 160.46959 -z 4
n -t 0.0 -s 115 -S UP -v circle -c blue -x 98.04791 -y 227.67683 -z 4
n -t 0.0 -s 116 -S UP -v circle -c blue -x 149.80782 -y 322.8357 -z 4
n -t 0.0 -s 58 -S UP -v circle -c blue -x 83.91044 -y 187.74661 -z 4
n -t 0.0 -s 117 -S UP -v circle -c blue -x 450.00092 -y 209.05963 -z 4
n -t 0.0 -s 118 -S UP -v circle -c blue -x 418.79437 -y 352.74326 -z 4
n -t 0.0 -s 14 -S UP -v circle -c blue -x 197.89677 -y 433.39862 -z 4
n -t 0.0 -s 29 -S UP -v circle -c blue -x 91.96133 -y 311.2152 -z 4
n -t 0.0 -s 59 -S UP -v circle -c blue -x 498.89563 -y 71.38157 -z 4
n -t 0.0 -s 119 -S UP -v circle -c blue -x 100.63425 -y 365.83847 -z 4
n -t 0.0 -s 120 -S UP -v circle -c blue -x 226.56024 -y 35.13044 -z 4
n -t 0.0 -s 60 -S UP -v circle -c blue -x 183.63792 -y 335.44275 -z 4
n -t 0.0 -s 121 -S UP -v circle -c blue -x 424.34778 -y 76.461914 -z 4
n -t 0.0 -s 122 -S UP -v circle -c blue -x 383.59665 -y 440.5284 -z 4
n -t 0.0 -s 30 -S UP -v circle -c blue -x 215.89133 -y 194.61375 -z 4
n -t 0.0 -s 61 -S UP -v circle -c blue -x 420.4425 -y 122.328606 -z 4
n -t 0.0 -s 123 -S UP -v circle -c blue -x 289.1058 -y 378.60672 -z 4
n -t 0.0 -s 124 -S UP -v circle -c blue -x 463.79123 -y 416.56937 -z 4
n -t 0.0 -s 62 -S UP -v circle -c blue -x 64.695 -y 25.653957 -z 4
n -t 0.0 -s 125 -S UP -v circle -c blue -x 478.3141 -y 449.51694 -z 4
n -t 0.0 -s 126 -S UP -v circle -c blue -x 187.93803 -y 26.750565 -z 4
n -t 2.4340618 -s 72 -S UP -v circle -c blue -x 461.74994 -y 219.899 -z 4
n -t 3.0647063 -s 71 -S UP -v circle -c blue -x 318.27054 -y 453.50394 -z 4
n -t 3.070276 -s 96 -S UP -v circle -c blue -x 301.30646 -y 325.9143 -z 4
n -t 3.3665242 -s 194 -S UP -v circle -c blue -x 290.1715 -y 453.24136 -z 4
n -t 3.8852217 -s 195 -S UP -v circle -c blue -x 103.863144 -y 343.7774 -z 4
n -t 4.545949 -s 118 -S UP -v circle -c blue -x 440.0929 -y 280.72568 -z 4
n -t 4.563325 -s 10 -S UP -v circle -c blue -x 317.92526 -y 134.76714 -z 4
n -t 4.5836143 -s 150 -S UP -v circle -c blue -x 285.29688 -y 299.29987 -z 4
n -t 4.731453 -s 95 -S UP -v circle -c blue -x 85.45083 -y 385.63733 -z 4
n -t 5.2133055 -s 154 -S UP -v circle -c blue -x 410.95456 -y 401.22955 -z 4
n -t 5.2568665 -s 103 -S UP -v circle -c blue -x 392.72946 -y 148.77489 -z 4
n -t 5.3503213 -s 42 -S UP -v circle -c blue -x 30.578484 -y 111.57064 -z 4
n -t 5.3893256 -s 125 -S UP -v circle -c blue -x 403.4558 -y 467.69226 -z 4
n -t 5.472217 -s 119 -S UP -v circle -c blue -x 76.40358 -y 378.18478 -z 4
n -t 5.486482 -s 73 -S UP -v circle -c blue -x 141.95178 -y 156.40924 -z 4
n -t 5.7142367 -s 29 -S UP -v circle -c blue -x 39.831104 -y 242.24936 -z 4
n -t 5.947545 -s 75 -S UP -v circle -c blue -x 371.19788 -y 345.94077 -z 4
n -t 6.075812 -s 113 -S UP -v circle -c blue -x 310.5016 -y 147.0438 -z 4
n -t 6.137645 -s 110 -S UP -v circle -c blue -x 319.19125 -y 379.18115 -z 4
n -t 6.271255 -s 13 -S UP -v circle -c blue -x 446.02722 -y 310.38672 -z 4
n -t 6.311022 -s 82 -S UP -v circle -c blue -x 482.49075 -y 157.21202 -z 4
n -t 6.4693975 -s 1 -S UP -v circle -c red -x 34.127964 -y 364.91772 -z 4
n -t 6.585648 -s 45 -S UP -v circle -c blue -x 197.01343 -y 210.91425 -z 4
n -t 7.3930855 -s 100 -S UP -v circle -c blue -x 117.32881 -y 194.99986 -z 4
n -t 7.405958 -s 164 -S UP -v circle -c blue -x 288.16476 -y 318.73166 -z 4