# Trace file generated by Jist/Swans Version 1.0.6. at Fri Jul 26 20:35:38 BRT 2013
V -t * -v 1.0a5 -a 0
W -t * -x 410 -y 410
A -t * -n 1 -p 0 -o 0xffffffff -c 31 -a 1
A -t * -h 1 -m 2147483647 -s 0
n -t 0.0 -s 1 -S UP -v circle -c red -x 57.311474 -y 5.4079 -z 4
n -t 0.0 -s 2 -S UP -v circle -c red -x 464.711 -y 411.4545 -z 4
n -t 0.0 -s 3 -S UP -v circle -c red -x 46.67494 -y 266.90573 -z 4
n -t 0.0 -s 4 -S UP -v circle -c red -x 427.3415 -y 495.04315 -z 4
n -t 0.0 -s 5 -S UP -v circle -c red -x 410.7569 -y 302.77768 -z 4
n -t 0.0 -s 6 -S UP -v circle -c red -x 428.78372 -y 385.95294 -z 4
n -t 0.0 -s 7 -S UP -v circle -c red -x 293.34302 -y 66.52943 -z 4
n -t 0.0 -s 8 -S UP -v circle -c red -x 337.7086 -y 137.57372 -z 4
n -t 0.0 -s 9 -S UP -v circle -c blue -x 18.704027 -y 405.1362 -z 4
n -t 0.0 -s 10 -S UP -v circle -c blue -x 425.91293 -y 211.27197 -z 4
n -t 0.0 -s 11 -S UP -v circle -c blue -x 97.48414 -y 470.49414 -z 4
n -t 0.0 -s 12 -S UP -v circle -c blue -x 462.96564 -y 242.90317 -z 4
n -t 0.0 -s 13 -S UP -v circle -c blue -x 101.88511 -y 122.5661 -z 4
n -t 0.0 -s 14 -S UP -v circle -c blue -x 154.72034 -y 410.1443 -z 4
n -t 0.0 -s 15 -S UP -v circle -c blue -x 492.83398 -y 126.99741 -z 4
n -t 0.0 -s 16 -S UP -v circle -c blue -x 40.416718 -y 46.088608 -z 4
n -t 0.0 -s 17 -S UP -v circle -c blue -x 381.71198 -y 1.7436743 -z 4
n -t 0.0 -s 18 -S UP -v circle -c blue -x 167.25555 -y 104.53144 -z 4
n -t 0.0 -s 19 -S UP -v circle -c blue -x 307.628 -y 229.2316 -z 4
n -t 0.0 -s 20 -S UP -v circle -c blue -x 112.89257 -y 255.15997 -z 4
n -t 0.0 -s 21 -S UP -v circle -c blue -x 14.099211 -y 22.079975 -z 4
n -t 0.0 -s 22 -S UP -v circle -c blue -x 100.73498 -y 450.6668 -z 4
n -t 0.0 -s 23 -S UP -v circle -c blue -x 92.625946 -y 374.82022 -z 4
n -t 0.0 -s 24 -S UP -v circle -c blue -x 308.54913 -y 167.42009 -z 4
n -t 0.0 -s 25 -S UP -v circle -c blue -x 96.594215 -y 3.8168132 -z 4
n -t 0.0 -s 26 -S UP -v circle -c blue -x 273.80612 -y 433.09158 -z 4
n -t 0.0 -s 27 -S UP -v circle -c blue -x 9.109915 -y 139.20006 -z 4
n -t 0.0 -s 28 -S UP -v circle -c blue -x 448.33408 -y 451.4764 -z 4
n -t 0.0 -s 29 -S UP -v circle -c blue -x 409.9635 -y 191.65424 -z 4
n -t 0.0 -s 30 -S UP -v circle -c blue -x 106.94718 -y 451.10788 -z 4
n -t 0.0 -s 31 -S UP -v circle -c blue -x 37.465393 -y 442.98145 -z 4
n -t 0.0 -s 32 -S UP -v circle -c blue -x 9.334117 -y 381.21402 -z 4
n -t 0.0 -s 33 -S UP -v circle -c blue -x 83.214195 -y 261.17877 -z 4
n -t 0.0 -s 34 -S UP -v circle -c blue -x 498.97504 -y 168.67416 -z 4
n -t 0.0 -s 35 -S UP -v circle -c blue -x 215.10228 -y 491.073 -z 4
n -t 0.0 -s 36 -S UP -v circle -c blue -x 277.39334 -y 322.0786 -z 4
n -t 0.0 -s 37 -S UP -v circle -c blue -x 164.48856 -y 232.17729 -z 4
n -t 0.0 -s 38 -S UP -v circle -c blue -x 354.6237 -y 214.48782 -z 4
n -t 0.0 -s 39 -S UP -v circle -c blue -x 476.24 -y 462.23618 -z 4
n -t 0.0 -s 40 -S UP -v circle -c blue -x 468.19165 -y 112.32451 -z 4
n -t 0.0 -s 41 -S UP -v circle -c blue -x 139.35054 -y 462.86295 -z 4
n -t 0.0 -s 42 -S UP -v circle -c blue -x 411.7673 -y 12.849778 -z 4
n -t 0.0 -s 43 -S UP -v circle -c blue -x 45.476257 -y 231.7381 -z 4
n -t 0.0 -s 44 -S UP -v circle -c blue -x 182.39987 -y 152.29153 -z 4
n -t 0.0 -s 45 -S UP -v circle -c blue -x 262.6903 -y 42.105972 -z 4
n -t 0.0 -s 46 -S UP -v circle -c blue -x 361.10156 -y 297.8772 -z 4
n -t 0.0 -s 47 -S UP -v circle -c blue -x 232.07945 -y 216.9016 -z 4
n -t 0.0 -s 48 -S UP -v circle -c blue -x 287.57782 -y 13.311357 -z 4
n -t 0.0 -s 49 -S UP -v circle -c blue -x 160.80547 -y 492.95422 -z 4
n -t 0.0 -s 50 -S UP -v circle -c blue -x 485.95932 -y 213.72852 -z 4
n -t 0.0 -s 51 -S UP -v circle -c blue -x 382.58682 -y 445.60355 -z 4
n -t 0.0 -s 52 -S UP -v circle -c blue -x 187.15771 -y 204.50229 -z 4
n -t 0.0 -s 53 -S UP -v circle -c blue -x 16.17369 -y 250.04309 -z 4
n -t 0.0 -s 54 -S UP -v circle -c blue -x 175.42545 -y 331.72766 -z 4
n -t 0.0 -s 55 -S UP -v circle -c blue -x 175.56319 -y 161.15227 -z 4
n -t 0.0 -s 56 -S UP -v circle -c blue -x 445.1565 -y 390.49832 -z 4
n -t 0.0 -s 57 -S UP -v circle -c blue -x 269.0145 -y 375.9382 -z 4
n -t 0.0 -s 58 -S UP -v circle -c blue -x 180.02864 -y 421.62207 -z 4
n -t 0.0 -s 59 -S UP -v circle -c blue -x 384.26636 -y 193.47948 -z 4
n -t 0.0 -s 60 -S UP -v circle -c blue -x 384.18524 -y 336.0672 -z 4
n -t 0.0 -s 61 -S UP -v circle -c blue -x 156.94424 -y 437.01834 -z 4
n -t 0.0 -s 62 -S UP -v circle -c blue -x 386.02682 -y 398.68137 -z 4
n -t 0.0 -s 63 -S UP -v circle -c blue -x 190.48769 -y 446.20953 -z 4
n -t 0.0 -s 64 -S UP -v circle -c blue -x 63.876568 -y 164.60788 -z 4
n -t 0.0 -s 65 -S UP -v circle -c blue -x 66.86062 -y 368.19904 -z 4
n -t 0.0 -s 66 -S UP -v circle -c blue -x 181.66507 -y 30.942022 -z 4
n -t 0.0 -s 67 -S UP -v circle -c blue -x 105.978966 -y 171.92375 -z 4
n -t 0.0 -s 68 -S UP -v circle -c blue -x 477.0243 -y 156.67818 -z 4
n -t 0.0 -s 69 -S UP -v circle -c blue -x 91.65048 -y 17.613352 -z 4
n -t 0.0 -s 70 -S UP -v circle -c blue -x 176.7742 -y 231.62476 -z 4
n -t 0.0 -s 71 -S UP -v circle -c blue -x 46.646713 -y 233.81674 -z 4
n -t 0.0 -s 72 -S UP -v circle -c blue -x 371.5328 -y 281.98795 -z 4
n -t 0.0 -s 73 -S UP -v circle -c blue -x 368.39572 -y 377.30673 -z 4
n -t 0.0 -s 74 -S UP -v circle -c blue -x 115.69128 -y 80.600586 -z 4
n -t 0.0 -s 75 -S UP -v circle -c blue -x 109.09015 -y 280.9439 -z 4
n -t 0.0 -s 76 -S UP -v circle -c blue -x 317.69733 -y 453.7038 -z 4
n -t 0.0 -s 77 -S UP -v circle -c blue -x 224.46033 -y 274.0713 -z 4
n -t 0.0 -s 78 -S UP -v circle -c blue -x 292.72104 -y 115.75252 -z 4
n -t 0.0 -s 79 -S UP -v circle -c blue -x 119.07786 -y 196.39056 -z 4
n -t 0.0 -s 80 -S UP -v circle -c blue -x 492.38852 -y 117.44627 -z 4
n -t 0.0 -s 81 -S UP -v circle -c blue -x 373.17276 -y 15.7340765 -z 4
n -t 0.0 -s 82 -S UP -v circle -c blue -x 139.22092 -y 410.17905 -z 4
n -t 0.0 -s 83 -S UP -v circle -c blue -x 57.203293 -y 312.94522 -z 4
n -t 0.0 -s 84 -S UP -v circle -c blue -x 144.39008 -y 239.02083 -z 4
n -t 0.0 -s 85 -S UP -v circle -c blue -x 381.77484 -y 162.53168 -z 4
n -t 0.0 -s 86 -S UP -v circle -c blue -x 401.88095 -y 4.4069586 -z 4
n -t 0.0 -s 87 -S UP -v circle -c blue -x 18.227995 -y 229.23866 -z 4
n -t 0.0 -s 88 -S UP -v circle -c blue -x 338.43808 -y 34.708233 -z 4
n -t 0.0 -s 89 -S UP -v circle -c blue -x 380.8917 -y 220.64462 -z 4
n -t 0.0 -s 90 -S UP -v circle -c blue -x 472.8823 -y 394.12964 -z 4
n -t 0.0 -s 91 -S UP -v circle -c blue -x 427.51736 -y 100.815926 -z 4
n -t 0.0 -s 92 -S UP -v circle -c blue -x 349.43848 -y 395.85205 -z 4
n -t 0.0 -s 93 -S UP -v circle -c blue -x 496.98193 -y 135.5311 -z 4
n -t 0.0 -s 94 -S UP -v circle -c blue -x 464.35724 -y 483.45883 -z 4
n -t 0.0 -s 95 -S UP -v circle -c blue -x 320.4912 -y 25.2347 -z 4
n -t 0.0 -s 96 -S UP -v circle -c blue -x 492.8875 -y 395.51337 -z 4
n -t 0.0 -s 97 -S UP -v circle -c blue -x 267.06216 -y 496.39133 -z 4
n -t 0.0 -s 98 -S UP -v circle -c blue -x 41.93604 -y 201.27646 -z 4
n -t 0.0 -s 99 -S UP -v circle -c blue -x 89.15848 -y 88.03987 -z 4
n -t 0.0 -s 100 -S UP -v circle -c blue -x 232.69751 -y 29.12569 -z 4
n -t 0.0 -s 101 -S UP -v circle -c blue -x 338.4539 -y 349.9103 -z 4
n -t 0.0 -s 102 -S UP -v circle -c blue -x 345.15536 -y 343.99478 -z 4
n -t 0.0 -s 103 -S UP -v circle -c blue -x 213.5722 -y 287.34146 -z 4
n -t 0.0 -s 104 -S UP -v circle -c blue -x 103.430984 -y 433.3665 -z 4
n -t 0.0 -s 105 -S UP -v circle -c blue -x 65.386086 -y 461.3674 -z 4
n -t 0.0 -s 106 -S UP -v circle -c blue -x 26.114582 -y 151.8813 -z 4
n -t 0.0 -s 107 -S UP -v circle -c blue -x 125.43824 -y 408.7275 -z 4
n -t 0.0 -s 108 -S UP -v circle -c blue -x 320.3701 -y 247.87215 -z 4
n -t 0.0 -s 109 -S UP -v circle -c blue -x 188.99089 -y 254.26877 -z 4
n -t 0.0 -s 110 -S UP -v circle -c blue -x 32.006653 -y 148.07782 -z 4
n -t 0.0 -s 111 -S UP -v circle -c blue -x 496.12802 -y 479.3724 -z 4
n -t 0.0 -s 112 -S UP -v circle -c blue -x 427.90207 -y 32.95922 -z 4
n -t 0.0 -s 113 -S UP -v circle -c blue -x 127.5636 -y 5.8492126 -z 4
n -t 0.0 -s 114 -S UP -v circle -c blue -x 242.01164 -y 369.5396 -z 4
n -t 0.0 -s 115 -S UP -v circle -c blue -x 401.9924 -y 190.45546 -z 4
n -t 0.0 -s 116 -S UP -v circle -c blue -x 454.3746 -y 233.17381 -z 4
n -t 0.0 -s 117 -S UP -v circle -c blue -x 9.914875 -y 175.10646 -z 4
n -t 0.0 -s 118 -S UP -v circle -c blue -x 444.53067 -y 297.3452 -z 4
n -t 0.0 -s 119 -S UP -v circle -c blue -x 496.1418 -y 140.38214 -z 4
n -t 0.0 -s 120 -S UP -v circle -c blue -x 299.87695 -y 81.276924 -z 4
n -t 0.0 -s 121 -S UP -v circle -c blue -x 456.22482 -y 492.47275 -z 4
n -t 0.0 -s 122 -S UP -v circle -c blue -x 406.85004 -y 50.17233 -z 4
n -t 0.0 -s 123 -S UP -v circle -c blue -x 7.752776 -y 417.80597 -z 4
n -t 0.0 -s 124 -S UP -v circle -c blue -x 482.32877 -y 70.183395 -z 4
n -t 0.0 -s 125 -S UP -v circle -c blue -x 248.01558 -y 145.79454 -z 4
n -t 0.0 -s 126 -S UP -v circle -c blue -x 446.0652 -y 239.21082 -z 4
n -t 0.0 -s 127 -S UP -v circle -c blue -x 97.48113 -y 413.0769 -z 4
n -t 0.0 -s 128 -S UP -v circle -c blue -x 406.8082 -y 181.40727 -z 4
n -t 0.0 -s 129 -S UP -v circle -c blue -x 431.69147 -y 55.983128 -z 4
n -t 0.0 -s 130 -S UP -v circle -c blue -x 457.4556 -y 295.37946 -z 4
n -t 0.0 -s 131 -S UP -v circle -c blue -x 320.7053 -y 319.49603 -z 4
n -t 0.0 -s 132 -S UP -v circle -c blue -x 3.2279491 -y 447.72662 -z 4
n -t 0.0 -s 133 -S UP -v circle -c blue -x 68.552765 -y 347.51453 -z 4
n -t 0.0 -s 134 -S UP -v circle -c blue -x 294.4915 -y 70.436325 -z 4
n -t 0.0 -s 135 -S UP -v circle -c blue -x 189.09427 -y 61.635612 -z 4
n -t 0.0 -s 136 -S UP -v circle -c blue -x 398.26746 -y 145.06593 -z 4
n -t 0.0 -s 137 -S UP -v circle -c blue -x 278.27042 -y 183.89911 -z 4
n -t 0.0 -s 138 -S UP -v circle -c blue -x 223.26573 -y 82.42088 -z 4
n -t 0.0 -s 139 -S UP -v circle -c blue -x 75.387924 -y 366.98752 -z 4
n -t 0.0 -s 140 -S UP -v circle -c blue -x 248.89642 -y 454.0046 -z 4
n -t 0.0 -s 141 -S UP -v circle -c blue -x 422.51746 -y 156.30763 -z 4
n -t 0.0 -s 142 -S UP -v circle -c blue -x 393.38287 -y 422.83768 -z 4
n -t 0.0 -s 143 -S UP -v circle -c blue -x 476.29776 -y 379.33142 -z 4
n -t 0.0 -s 144 -S UP -v circle -c blue -x 466.87457 -y 304.8547 -z 4
n -t 0.0 -s 145 -S UP -v circle -c blue -x 240.78325 -y 384.7319 -z 4
n -t 0.0 -s 146 -S UP -v circle -c blue -x 377.20032 -y 68.08975 -z 4
n -t 0.0 -s 147 -S UP -v circle -c blue -x 434.08084 -y 97.46853 -z 4
n -t 0.0 -s 148 -S UP -v circle -c blue -x 306.28915 -y 321.9118 -z 4
n -t 0.0 -s 149 -S UP -v circle -c blue -x 481.35535 -y 415.3738 -z 4
n -t 0.0 -s 150 -S UP -v circle -c blue -x 329.8051 -y 140.89227 -z 4
n -t 0.0 -s 151 -S UP -v circle -c blue -x 218.60788 -y 11.345416 -z 4
n -t 0.0 -s 152 -S UP -v circle -c blue -x 169.49188 -y 312.26797 -z 4
n -t 0.0 -s 153 -S UP -v circle -c blue -x 67.03436 -y 375.39987 -z 4
n -t 0.0 -s 154 -S UP -v circle -c blue -x 213.22334 -y 48.744648 -z 4
n -t 0.0 -s 155 -S UP -v circle -c blue -x 188.6428 -y 99.096565 -z 4
n -t 0.0 -s 156 -S UP -v circle -c blue -x 10.722965 -y 102.48509 -z 4
n -t 0.0 -s 157 -S UP -v circle -c blue -x 97.35542 -y 176.76201 -z 4
n -t 0.0 -s 158 -S UP -v circle -c blue -x 310.09644 -y 386.01212 -z 4
n -t 0.0 -s 159 -S UP -v circle -c blue -x 83.569466 -y 343.16238 -z 4
n -t 0.0 -s 160 -S UP -v circle -c blue -x 381.26132 -y 212.46347 -z 4
n -t 0.0 -s 161 -S UP -v circle -c blue -x 16.920954 -y 344.47955 -z 4
n -t 0.0 -s 162 -S UP -v circle -c blue -x 424.42352 -y 23.765385 -z 4
n -t 0.0 -s 163 -S UP -v circle -c blue -x 344.9458 -y 121.39469 -z 4
n -t 0.0 -s 164 -S UP -v circle -c blue -x 465.1143 -y 369.99948 -z 4
n -t 0.0 -s 165 -S UP -v circle -c blue -x 72.90706 -y 281.59183 -z 4
n -t 0.0 -s 166 -S UP -v circle -c blue -x 229.95552 -y 427.24918 -z 4
n -t 0.0 -s 167 -S UP -v circle -c blue -x 431.03552 -y 229.93944 -z 4
n -t 0.0 -s 168 -S UP -v circle -c blue -x 400.06287 -y 211.8119 -z 4
n -t 0.0 -s 169 -S UP -v circle -c blue -x 243.88788 -y 472.93304 -z 4
n -t 0.0 -s 170 -S UP -v circle -c blue -x 180.44156 -y 434.69904 -z 4
n -t 0.0 -s 171 -S UP -v circle -c blue -x 466.8623 -y 398.69046 -z 4
n -t 0.0 -s 172 -S UP -v circle -c blue -x 265.30252 -y 187.22627 -z 4
n -t 0.0 -s 173 -S UP -v circle -c blue -x 146.82854 -y 272.94733 -z 4
n -t 0.0 -s 174 -S UP -v circle -c blue -x 240.16524 -y 3.1978786 -z 4
n -t 0.0 -s 175 -S UP -v circle -c blue -x 467.34988 -y 467.23822 -z 4
n -t 0.0 -s 176 -S UP -v circle -c blue -x 343.9719 -y 179.24231 -z 4
n -t 0.0 -s 177 -S UP -v circle -c blue -x 19.430756 -y 18.953205 -z 4
n -t 0.0 -s 178 -S UP -v circle -c blue -x 428.07257 -y 277.36087 -z 4
n -t 0.0 -s 179 -S UP -v circle -c blue -x 281.75732 -y 399.48895 -z 4
n -t 0.0 -s 180 -S UP -v circle -c blue -x 136.53639 -y 184.36911 -z 4
n -t 0.0 -s 181 -S UP -v circle -c blue -x 230.97044 -y 260.5834 -z 4
n -t 0.0 -s 182 -S UP -v circle -c blue -x 294.28082 -y 264.8613 -z 4
n -t 0.0 -s 183 -S UP -v circle -c blue -x 333.887 -y 28.511406 -z 4
n -t 0.0 -s 184 -S UP -v circle -c blue -x 109.29453 -y 47.39803 -z 4
n -t 0.0 -s 185 -S UP -v circle -c blue -x 396.3503 -y 398.5667 -z 4
n -t 0.0 -s 186 -S UP -v circle -c blue -x 463.87173 -y 409.15634 -z 4
n -t 0.0 -s 187 -S UP -v circle -c blue -x 174.43866 -y 339.6701 -z 4
n -t 0.0 -s 188 -S UP -v circle -c blue -x 311.20218 -y 230.19382 -z 4
n -t 0.0 -s 189 -S UP -v circle -c blue -x 55.2966 -y 481.58588 -z 4
n -t 0.0 -s 190 -S UP -v circle -c blue -x 289.61 -y 434.2454 -z 4
n -t 0.0 -s 191 -S UP -v circle -c blue -x 319.40115 -y 219.73369 -z 4
n -t 0.0 -s 192 -S UP -v circle -c blue -x 281.75787 -y 404.619 -z 4
n -t 0.0 -s 193 -S UP -v circle -c blue -x 31.460852 -y 318.63596 -z 4
n -t 0.0 -s 194 -S UP -v circle -c blue -x 452.59134 -y 498.88986 -z 4
n -t 0.0 -s 195 -S UP -v circle -c blue -x 321.5188 -y 422.4014 -z 4
n -t 0.0 -s 196 -S UP -v circle -c blue -x 102.87112 -y 298.86716 -z 4
n -t 0.0 -s 197 -S UP -v circle -c blue -x 4.6460333 -y 426.1252 -z 4
n -t 0.0 -s 198 -S UP -v circle -c blue -x 37.813633 -y 438.44824 -z 4
n -t 0.0 -s 199 -S UP -v circle -c blue -x 10.638982 -y 26.568382 -z 4
n -t 0.0 -s 200 -S UP -v circle -c blue -x 18.434166 -y 193.76605 -z 4
n -t 0.0 -s 201 -S UP -v circle -c blue -x 13.456345 -y 143.9001 -z 4
n -t 0.0 -s 202 -S UP -v circle -c blue -x 190.27672 -y 191.32533 -z 4
n -t 0.0 -s 203 -S UP -v circle -c blue -x 343.14108 -y 392.6559 -z 4
n -t 0.0 -s 204 -S UP -v circle -c blue -x 256.7447 -y 261.02072 -z 4
n -t 0.0 -s 205 -S UP -v circle -c blue -x 55.379032 -y 22.445023 -z 4
n -t 0.0 -s 206 -S UP -v circle -c blue -x 426.4549 -y 404.00903 -z 4
n -t 0.0 -s 207 -S UP -v circle -c blue -x 320.66785 -y 54.45993 -z 4
n -t 0.0 -s 208 -S UP -v circle -c blue -x 42.976944 -y 58.90328 -z 4
n -t 0.0 -s 209 -S UP -v circle -c blue -x 166.6372 -y 304.69595 -z 4
n -t 0.0 -s 210 -S UP -v circle -c blue -x 35.850643 -y 183.76506 -z 4
n -t 0.0 -s 211 -S UP -v circle -c blue -x 474.02353 -y 119.22693 -z 4
n -t 0.0 -s 212 -S UP -v circle -c blue -x 281.5757 -y 452.55515 -z 4
n -t 0.0 -s 213 -S UP -v circle -c blue -x 345.11023 -y 0.2259314 -z 4
n -t 0.0 -s 214 -S UP -v circle -c blue -x 257.82477 -y 21.282555 -z 4
n -t 0.0 -s 215 -S UP -v circle -c blue -x 459.3734 -y 87.04326 -z 4
n -t 0.0 -s 216 -S UP -v circle -c blue -x 21.746546 -y 5.8530865 -z 4
n -t 0.0 -s 217 -S UP -v circle -c blue -x 426.20056 -y 177.00002 -z 4
n -t 0.0 -s 218 -S UP -v circle -c blue -x 60.01246 -y 36.91152 -z 4
n -t 0.0 -s 219 -S UP -v circle -c blue -x 380.7736 -y 42.129578 -z 4
n -t 0.0 -s 220 -S UP -v circle -c blue -x 93.14346 -y 499.70053 -z 4
n -t 0.0 -s 221 -S UP -v circle -c blue -x 33.732025 -y 176.46512 -z 4
n -t 0.0 -s 222 -S UP -v circle -c blue -x 376.37268 -y 413.6052 -z 4
n -t 0.0 -s 223 -S UP -v circle -c blue -x 35.57962 -y 413.26004 -z 4
n -t 0.0 -s 224 -S UP -v circle -c blue -x 213.4042 -y 167.64069 -z 4
n -t 0.0 -s 225 -S UP -v circle -c blue -x 5.797654 -y 491.4307 -z 4
n -t 0.0 -s 226 -S UP -v circle -c blue -x 85.28173 -y 167.27873 -z 4
n -t 0.0 -s 227 -S UP -v circle -c blue -x 377.4266 -y 448.27972 -z 4
n -t 0.0 -s 228 -S UP -v circle -c blue -x 424.36078 -y 3.8484633 -z 4
n -t 0.0 -s 229 -S UP -v circle -c blue -x 238.93144 -y 33.01239 -z 4
n -t 0.0 -s 230 -S UP -v circle -c blue -x 321.06976 -y 271.01776 -z 4
n -t 0.0 -s 231 -S UP -v circle -c blue -x 105.24398 -y 198.57338 -z 4
n -t 0.0 -s 232 -S UP -v circle -c blue -x 409.55185 -y 90.84281 -z 4
n -t 0.0 -s 233 -S UP -v circle -c blue -x 203.0608 -y 452.8534 -z 4
n -t 0.0 -s 234 -S UP -v circle -c blue -x 416.01328 -y 93.41803 -z 4
n -t 0.0 -s 235 -S UP -v circle -c blue -x 416.1612 -y 163.34155 -z 4
n -t 0.0 -s 236 -S UP -v circle -c blue -x 82.09136 -y 314.6716 -z 4
n -t 0.0 -s 237 -S UP -v circle -c blue -x 454.40344 -y 79.9034 -z 4
n -t 0.0 -s 238 -S UP -v circle -c blue -x 364.03308 -y 133.31067 -z 4
n -t 0.0 -s 239 -S UP -v circle -c blue -x 105.18154 -y 300.67038 -z 4
n -t 0.0 -s 240 -S UP -v circle -c blue -x 308.9964 -y 83.856674 -z 4
n -t 0.0 -s 241 -S UP -v circle -c blue -x 313.804 -y 377.22714 -z 4
n -t 0.0 -s 242 -S UP -v circle -c blue -x 182.2127 -y 133.2241 -z 4
n -t 0.0 -s 243 -S UP -v circle -c blue -x 355.145 -y 372.63342 -z 4
n -t 0.0 -s 244 -S UP -v circle -c blue -x 255.75548 -y 245.04587 -z 4
n -t 0.0 -s 245 -S UP -v circle -c blue -x 483.96402 -y 123.63073 -z 4
n -t 0.0 -s 246 -S UP -v circle -c blue -x 421.73895 -y 332.15747 -z 4
n -t 0.0 -s 247 -S UP -v circle -c blue -x 236.77051 -y 55.044533 -z 4
n -t 0.0 -s 248 -S UP -v circle -c blue -x 93.216446 -y 293.1049 -z 4
n -t 0.0 -s 249 -S UP -v circle -c blue -x 250.59921 -y 277.33502 -z 4
n -t 0.0 -s 250 -S UP -v circle -c blue -x 345.97977 -y 374.58728 -z 4
n -t 0.0 -s 251 -S UP -v circle -c blue -x 130.46355 -y 408.9838 -z 4
n -t 0.0 -s 252 -S UP -v circle -c blue -x 207.8021 -y 206.29176 -z 4
n -t 0.0 -s 253 -S UP -v circle -c blue -x 49.766064 -y 184.49307 -z 4
n -t 0.0 -s 254 -S UP -v circle -c blue -x 450.15387 -y 227.10196 -z 4
n -t 0.0 -s 255 -S UP -v circle -c blue -x 489.0927 -y 180.84738 -z 4
n -t 0.0 -s 256 -S UP -v circle -c blue -x 95.609276 -y 298.19156 -z 4
n -t 0.0 -s 257 -S UP -v circle -c blue -x 86.432304 -y 454.03757 -z 4
n -t 0.0 -s 258 -S UP -v circle -c blue -x 44.40829 -y 366.65698 -z 4
n -t 0.0 -s 259 -S UP -v circle -c blue -x 84.08559 -y 470.42676 -z 4
n -t 0.0 -s 260 -S UP -v circle -c blue -x 301.12558 -y 367.24942 -z 4
n -t 0.0 -s 261 -S UP -v circle -c blue -x 357.82086 -y 432.1637 -z 4
n -t 0.0 -s 262 -S UP -v circle -c blue -x 60.110153 -y 495.1648 -z 4
n -t 0.0 -s 263 -S UP -v circle -c blue -x 115.961876 -y 82.40077 -z 4
n -t 0.0 -s 264 -S UP -v circle -c blue -x 82.09682 -y 142.0254 -z 4
n -t 0.0 -s 265 -S UP -v circle -c blue -x 369.1415 -y 274.69113 -z 4
n -t 0.0 -s 266 -S UP -v circle -c blue -x 67.77021 -y 103.982895 -z 4
n -t 0.0 -s 267 -S UP -v circle -c blue -x 324.81766 -y 355.6285 -z 4
n -t 0.0 -s 268 -S UP -v circle -c blue -x 443.50513 -y 65.70378 -z 4
n -t 0.0 -s 269 -S UP -v circle -c blue -x 29.0291 -y 133.61833 -z 4
n -t 0.0 -s 270 -S UP -v circle -c blue -x 214.25569 -y 358.83505 -z 4
n -t 0.0 -s 271 -S UP -v circle -c blue -x 6.293118 -y 446.76013 -z 4
n -t 0.0 -s 272 -S UP -v circle -c blue -x 285.6681 -y 336.92596 -z 4
n -t 0.0 -s 273 -S UP -v circle -c blue -x 177.34122 -y 445.3707 -z 4
n -t 0.0 -s 274 -S UP -v circle -c blue -x 396.81253 -y 0.7984042 -z 4
n -t 0.0 -s 275 -S UP -v circle -c blue -x 124.20165 -y 429.9352 -z 4
n -t 0.0 -s 276 -S UP -v circle -c blue -x 154.14494 -y 325.67523 -z 4
n -t 0.0 -s 277 -S UP -v circle -c blue -x 428.92358 -y 232.56334 -z 4
n -t 0.0 -s 278 -S UP -v circle -c blue -x 491.90494 -y 262.21246 -z 4
n -t 0.0 -s 279 -S UP -v circle -c blue -x 12.266606 -y 162.71948 -z 4
n -t 0.0 -s 280 -S UP -v circle -c blue -x 462.43674 -y 12.727409 -z 4
n -t 0.0 -s 281 -S UP -v circle -c blue -x 13.534665 -y 208.53847 -z 4
n -t 0.0 -s 282 -S UP -v circle -c blue -x 347.9947 -y 177.7128 -z 4
n -t 0.0 -s 283 -S UP -v circle -c blue -x 474.30783 -y 159.93243 -z 4
n -t 0.0 -s 284 -S UP -v circle -c blue -x 82.39347 -y 459.0912 -z 4
n -t 0.0 -s 285 -S UP -v circle -c blue -x 54.327488 -y 304.50494 -z 4
n -t 0.0 -s 286 -S UP -v circle -c blue -x 33.119648 -y 130.06583 -z 4
n -t 0.0 -s 287 -S UP -v circle -c blue -x 424.73837 -y 211.6485 -z 4
n -t 0.0 -s 288 -S UP -v circle -c blue -x 361.79138 -y 497.89703 -z 4
n -t 0.0 -s 289 -S UP -v circle -c blue -x 255.11852 -y 22.798717 -z 4
n -t 0.0 -s 290 -S UP -v circle -c blue -x 0.49480796 -y 8.077592 -z 4
n -t 0.0 -s 291 -S UP -v circle -c blue -x 59.377045 -y 179.40787 -z 4
n -t 0.0 -s 292 -S UP -v circle -c blue -x 433.71973 -y 355.35468 -z 4
n -t 0.0 -s 293 -S UP -v circle -c blue -x 260.13107 -y 256.59946 -z 4
n -t 0.0 -s 294 -S UP -v circle -c blue -x 398.34778 -y 469.5735 -z 4
n -t 0.0 -s 295 -S UP -v circle -c blue -x 410.3519 -y 305.5526 -z 4
n -t 0.0 -s 296 -S UP -v circle -c blue -x 128.21739 -y 249.68257 -z 4
n -t 0.0 -s 297 -S UP -v circle -c blue -x 8.982241 -y 406.37915 -z 4
n -t 0.0 -s 298 -S UP -v circle -c blue -x 203.81287 -y 496.2923 -z 4
n -t 0.0 -s 299 -S UP -v circle -c blue -x 18.264412 -y 474.60648 -z 4
n -t 0.0 -s 300 -S UP -v circle -c blue -x 383.02472 -y 187.32497 -z 4
n -t 0.0 -s 1 -S UP -v circle -c red -x 57.311474 -y 5.4079 -z 4
n -t 0.0 -s 3 -S UP -v circle -c red -x 46.67494 -y 266.90573 -z 4
n -t 0.0 -s 7 -S UP -v circle -c red -x 293.34302 -y 66.52943 -z 4
n -t 0.0 -s 15 -S UP -v circle -c blue -x 492.83398 -y 126.99741 -z 4
n -t 0.0 -s 31 -S UP -v circle -c blue -x 37.465393 -y 442.98145 -z 4
n -t 0.0 -s 63 -S UP -v circle -c blue -x 190.48769 -y 446.20953 -z 4
n -t 0.0 -s 127 -S UP -v circle -c blue -x 97.48113 -y 413.0769 -z 4
n -t 0.0 -s 255 -S UP -v circle -c blue -x 489.0927 -y 180.84738 -z 4
n -t 0.0 -s 256 -S UP -v circle -c blue -x 95.609276 -y 298.19156 -z 4
n -t 0.0 -s 128 -S UP -v circle -c blue -x 406.8082 -y 181.40727 -z 4
n -t 0.0 -s 257 -S UP -v circle -c blue -x 86.432304 -y 454.03757 -z 4
n -t 0.0 -s 258 -S UP -v circle -c blue -x 44.40829 -y 366.65698 -z 4
n -t 0.0 -s 64 -S UP -v circle -c blue -x 63.876568 -y 164.60788 -z 4
n -t 0.0 -s 129 -S UP -v circle -c blue -x 431.69147 -y 55.983128 -z 4
n -t 0.0 -s 259 -S UP -v circle -c blue -x 84.08559 -y 470.42676 -z 4
n -t 0.0 -s 260 -S UP -v circle -c blue -x 301.12558 -y 367.24942 -z 4
n -t 0.0 -s 130 -S UP -v circle -c blue -x 457.4556 -y 295.37946 -z 4
n -t 0.0 -s 261 -S UP -v circle -c blue -x 357.82086 -y 432.1637 -z 4
n -t 0.0 -s 262 -S UP -v circle -c blue -x 60.110153 -y 495.1648 -z 4
n -t 0.0 -s 32 -S UP -v circle -c blue -x 9.334117 -y 381.21402 -z 4
n -t 0.0 -s 65 -S UP -v circle -c blue -x 66.86062 -y 368.19904 -z 4
n -t 0.0 -s 131 -S UP -v circle -c blue -x 320.7053 -y 319.49603 -z 4
n -t 0.0 -s 263 -S UP -v circle -c blue -x 115.961876 -y 82.40077 -z 4
n -t 0.0 -s 264 -S UP -v circle -c blue -x 82.09682 -y 142.0254 -z 4
n -t 0.0 -s 132 -S UP -v circle -c blue -x 3.2279491 -y 447.72662 -z 4
n -t 0.0 -s 265 -S UP -v circle -c blue -x 369.1415 -y 274.69113 -z 4
n -t 0.0 -s 266 -S UP -v circle -c blue -x 67.77021 -y 103.982895 -z 4
n -t 0.0 -s 66 -S UP -v circle -c blue -x 181.66507 -y 30.942022 -z 4
n -t 0.0 -s 133 -S UP -v circle -c blue -x 68.552765 -y 347.51453 -z 4
n -t 0.0 -s 267 -S UP -v circle -c blue -x 324.81766 -y 355.6285 -z 4
n -t 0.0 -s 268 -S UP -v circle -c blue -x 443.50513 -y 65.70378 -z 4
n -t 0.0 -s 134 -S UP -v circle -c blue -x 294.4915 -y 70.436325 -z 4
n -t 0.0 -s 269 -S UP -v circle -c blue -x 29.0291 -y 133.61833 -z 4
n -t 0.0 -s 270 -S UP -v circle -c blue -x 214.25569 -y 358.83505 -z 4
n -t 0.0 -s 16 -S UP -v circle -c blue -x 40.416718 -y 46.088608 -z 4
n -t 0.0 -s 33 -S UP -v circle -c blue -x 83.214195 -y 261.17877 -z 4
n -t 0.0 -s 67 -S UP -v circle -c blue -x 105.978966 -y 171.92375 -z 4
n -t 0.0 -s 135 -S UP -v circle -c blue -x 189.09427 -y 61.635612 -z 4
n -t 0.0 -s 271 -S UP -v circle -c blue -x 6.293118 -y 446.76013 -z 4
n -t 0.0 -s 272 -S UP -v circle -c blue -x 285.6681 -y 336.92596 -z 4
n -t 0.0 -s 136 -S UP -v circle -c blue -x 398.26746 -y 145.06593 -z 4
n -t 0.0 -s 273 -S UP -v circle -c blue -x 177.34122 -y 445.3707 -z 4
n -t 0.0 -s 274 -S UP -v circle -c blue -x 396.81253 -y 0.7984042 -z 4
n -t 0.0 -s 68 -S UP -v circle -c blue -x 477.0243 -y 156.67818 -z 4
n -t 0.0 -s 137 -S UP -v circle -c blue -x 278.27042 -y 183.89911 -z 4
n -t 0.0 -s 275 -S UP -v circle -c blue -x 124.20165 -y 429.9352 -z 4
n -t 0.0 -s 276 -S UP -v circle -c blue -x 154.14494 -y 325.67523 -z 4
n -t 0.0 -s 138 -S UP -v circle -c blue -x 223.26573 -y 82.42088 -z 4
n -t 0.0 -s 277 -S UP -v circle -c blue -x 428.92358 -y 232.56334 -z 4
n -t 0.0 -s 278 -S UP -v circle -c blue -x 491.90494 -y 262.21246 -z 4
n -t 0.0 -s 34 -S UP -v circle -c blue -x 498.97504 -y 168.67416 -z 4
n -t 0.0 -s 69 -S UP -v circle -c blue -x 91.65048 -y 17.613352 -z 4
n -t 0.0 -s 139 -S UP -v circle -c blue -x 75.387924 -y 366.98752 -z 4
n -t 0.0 -s 279 -S UP -v circle -c blue -x 12.266606 -y 162.71948 -z 4
n -t 0.0 -s 280 -S UP -v circle -c blue -x 462.43674 -y 12.727409 -z 4
n -t 0.0 -s 140 -S UP -v circle -c blue -x 248.89642 -y 454.0046 -z 4
n -t 0.0 -s 281 -S UP -v circle -c blue -x 13.534665 -y 208.53847 -z 4
n -t 0.0 -s 282 -S UP -v circle -c blue -x 347.9947 -y 177.7128 -z 4
n -t 0.0 -s 70 -S UP -v circle -c blue -x 176.7742 -y 231.62476 -z 4
n -t 0.0 -s 141 -S UP -v circle -c blue -x 422.51746 -y 156.30763 -z 4
n -t 0.0 -s 283 -S UP -v circle -c blue -x 474.30783 -y 159.93243 -z 4
n -t 0.0 -s 284 -S UP -v circle -c blue -x 82.39347 -y 459.0912 -z 4
n -t 0.0 -s 142 -S UP -v circle -c blue -x 393.38287 -y 422.83768 -z 4
n -t 0.0 -s 285 -S UP -v circle -c blue -x 54.327488 -y 304.50494 -z 4
n -t 0.0 -s 286 -S UP -v circle -c blue -x 33.119648 -y 130.06583 -z 4
n -t 0.0 -s 8 -S UP -v circle -c red -x 337.7086 -y 137.57372 -z 4
n -t 0.0 -s 17 -S UP -v circle -c blue -x 381.71198 -y 1.7436743 -z 4
n -t 0.0 -s 35 -S UP -v circle -c blue -x 215.10228 -y 491.073 -z 4
n -t 0.0 -s 71 -S UP -v circle -c blue -x 46.646713 -y 233.81674 -z 4
n -t 0.0 -s 143 -S UP -v circle -c blue -x 476.29776 -y 379.33142 -z 4
n -t 0.0 -s 287 -S UP -v circle -c blue -x 424.73837 -y 211.6485 -z 4
n -t 0.0 -s 288 -S UP -v circle -c blue -x 361.79138 -y 497.89703 -z 4
n -t 0.0 -s 144 -S UP -v circle -c blue -x 466.87457 -y 304.8547 -z 4
n -t 0.0 -s 289 -S UP -v circle -c blue -x 255.11852 -y 22.798717 -z 4
n -t 0.0 -s 290 -S UP -v circle -c blue -x 0.49480796 -y 8.077592 -z 4
n -t 0.0 -s 72 -S UP -v circle -c blue -x 371.5328 -y 281.98795 -z 4
n -t 0.0 -s 145 -S UP -v circle -c blue -x 240.78325 -y 384.7319 -z 4
n -t 0.0 -s 291 -S UP -v circle -c blue -x 59.377045 -y 179.40787 -z 4
n -t 0.0 -s 292 -S UP -v circle -c blue -x 433.71973 -y 355.35468 -z 4
n -t 0.0 -s 146 -S UP -v circle -c blue -x 377.20032 -y 68.08975 -z 4
n -t 0.0 -s 293 -S UP -v circle -c blue -x 260.13107 -y 256.59946 -z 4
n -t 0.0 -s 294 -S UP -v circle -c blue -x 398.34778 -y 469.5735 -z 4
n -t 0.0 -s 36 -S UP -v circle -c blue -x 277.39334 -y 322.0786 -z 4
n -t 0.0 -s 73 -S UP -v circle -c blue -x 368.39572 -y 377.30673 -z 4
n -t 0.0 -s 147 -S UP -v circle -c blue -x 434.08084 -y 97.46853 -z 4
n -t 0.0 -s 295 -S UP -v circle -c blue -x 410.3519 -y 305.5526 -z 4
n -t 0.0 -s 296 -S UP -v circle -c blue -x 128.21739 -y 249.68257 -z 4
n -t 0.0 -s 148 -S UP -v circle -c blue -x 306.28915 -y 321.9118 -z 4
n -t 0.0 -s 297 -S UP -v circle -c blue -x 8.982241 -y 406.37915 -z 4
n -t 0.0 -s 298 -S UP -v circle -c blue -x 203.81287 -y 496.2923 -z 4
n -t 0.0 -s 74 -S UP -v circle -c blue -x 115.69128 -y 80.600586 -z 4
n -t 0.0 -s 149 -S UP -v circle -c blue -x 481.35535 -y 415.3738 -z 4
n -t 0.0 -s 299 -S UP -v circle -c blue -x 18.264412 -y 474.60648 -z 4
n -t 0.0 -s 300 -S UP -v circle -c blue -x 383.02472 -y 187.32497 -z 4
n -t 0.0 -s 150 -S UP -v circle -c blue -x 329.8051 -y 140.89227 -z 4
n -t 0.0 -s 18 -S UP -v circle -c blue -x 167.25555 -y 104.53144 -z 4
n -t 0.0 -s 37 -S UP -v circle -c blue -x 164.48856 -y 232.17729 -z 4
n -t 0.0 -s 75 -S UP -v circle -c blue -x 109.09015 -y 280.9439 -z 4
n -t 0.0 -s 151 -S UP -v circle -c blue -x 218.60788 -y 11.345416 -z 4
n -t 0.0 -s 152 -S UP -v circle -c blue -x 169.49188 -y 312.26797 -z 4
n -t 0.0 -s 76 -S UP -v circle -c blue -x 317.69733 -y 453.7038 -z 4
n -t 0.0 -s 153 -S UP -v circle -c blue -x 67.03436 -y 375.39987 -z 4
n -t 0.0 -s 154 -S UP -v circle -c blue -x 213.22334 -y 48.744648 -z 4
n -t 0.0 -s 38 -S UP -v circle -c blue -x 354.6237 -y 214.48782 -z 4
n -t 0.0 -s 77 -S UP -v circle -c blue -x 224.46033 -y 274.0713 -z 4
n -t 0.0 -s 155 -S UP -v circle -c blue -x 188.6428 -y 99.096565 -z 4
n -t 0.0 -s 156 -S UP -v circle -c blue -x 10.722965 -y 102.48509 -z 4
n -t 0.0 -s 78 -S UP -v circle -c blue -x 292.72104 -y 115.75252 -z 4
n -t 0.0 -s 157 -S UP -v circle -c blue -x 97.35542 -y 176.76201 -z 4
n -t 0.0 -s 158 -S UP -v circle -c blue -x 310.09644 -y 386.01212 -z 4
n -t 0.0 -s 4 -S UP -v circle -c red -x 427.3415 -y 495.04315 -z 4
n -t 0.0 -s 9 -S UP -v circle -c blue -x 18.704027 -y 405.1362 -z 4
n -t 0.0 -s 19 -S UP -v circle -c blue -x 307.628 -y 229.2316 -z 4
n -t 0.0 -s 39 -S UP -v circle -c blue -x 476.24 -y 462.23618 -z 4
n -t 0.0 -s 79 -S UP -v circle -c blue -x 119.07786 -y 196.39056 -z 4
n -t 0.0 -s 159 -S UP -v circle -c blue -x 83.569466 -y 343.16238 -z 4
n -t 0.0 -s 160 -S UP -v circle -c blue -x 381.26132 -y 212.46347 -z 4
n -t 0.0 -s 80 -S UP -v circle -c blue -x 492.38852 -y 117.44627 -z 4
n -t 0.0 -s 161 -S UP -v circle -c blue -x 16.920954 -y 344.47955 -z 4
n -t 0.0 -s 162 -S UP -v circle -c blue -x 424.42352 -y 23.765385 -z 4
n -t 0.0 -s 40 -S UP -v circle -c blue -x 468.19165 -y 112.32451 -z 4
n -t 0.0 -s 81 -S UP -v circle -c blue -x 373.17276 -y 15.7340765 -z 4
n -t 0.0 -s 163 -S UP -v circle -c blue -x 344.9458 -y 121.39469 -z 4
n -t 0.0 -s 164 -S UP -v circle -c blue -x 465.1143 -y 369.99948 -z 4
n -t 0.0 -s 82 -S UP -v circle -c blue -x 139.22092 -y 410.17905 -z 4