# Trace file generated by Jist/Swans Version 1.0.6. at Fri Jul 26 20:26:37 BRT 2013
V -t * -v 1.0a5 -a 0
W -t * -x 410 -y 410
A -t * -n 1 -p 0 -o 0xffffffff -c 31 -a 1
A -t * -h 1 -m 2147483647 -s 0
n -t 0.0 -s 1 -S UP -v circle -c red -x 355.91187 -y 458.72522 -z 4
n -t 0.0 -s 2 -S UP -v circle -c red -x 483.79437 -y 182.71468 -z 4
n -t 0.0 -s 3 -S UP -v circle -c red -x 279.2313 -y 364.12704 -z 4
n -t 0.0 -s 4 -S UP -v circle -c red -x 488.57538 -y 144.1066 -z 4
n -t 0.0 -s 5 -S UP -v circle -c red -x 207.40929 -y 163.88017 -z 4
n -t 0.0 -s 6 -S UP -v circle -c red -x 179.71573 -y 334.4178 -z 4
n -t 0.0 -s 7 -S UP -v circle -c red -x 441.17444 -y 424.64993 -z 4
n -t 0.0 -s 8 -S UP -v circle -c red -x 322.23016 -y 227.3544 -z 4
n -t 0.0 -s 9 -S UP -v circle -c blue -x 69.79549 -y 292.72043 -z 4
n -t 0.0 -s 10 -S UP -v circle -c blue -x 139.53537 -y 470.58377 -z 4
n -t 0.0 -s 11 -S UP -v circle -c blue -x 257.0914 -y 181.94305 -z 4
n -t 0.0 -s 12 -S UP -v circle -c blue -x 395.78317 -y 185.49698 -z 4
n -t 0.0 -s 13 -S UP -v circle -c blue -x 111.86078 -y 425.74063 -z 4
n -t 0.0 -s 14 -S UP -v circle -c blue -x 66.40044 -y 397.03476 -z 4
n -t 0.0 -s 15 -S UP -v circle -c blue -x 112.86971 -y 343.73532 -z 4
n -t 0.0 -s 16 -S UP -v circle -c blue -x 265.11722 -y 108.144585 -z 4
n -t 0.0 -s 17 -S UP -v circle -c blue -x 310.33026 -y 297.9148 -z 4
n -t 0.0 -s 18 -S UP -v circle -c blue -x 128.94833 -y 414.9396 -z 4
n -t 0.0 -s 19 -S UP -v circle -c blue -x 456.21747 -y 16.484201 -z 4
n -t 0.0 -s 20 -S UP -v circle -c blue -x 416.43393 -y 176.49153 -z 4
n -t 0.0 -s 21 -S UP -v circle -c blue -x 206.15286 -y 62.56771 -z 4
n -t 0.0 -s 22 -S UP -v circle -c blue -x 440.45435 -y 131.3327 -z 4
n -t 0.0 -s 23 -S UP -v circle -c blue -x 443.84167 -y 81.92986 -z 4
n -t 0.0 -s 24 -S UP -v circle -c blue -x 465.66882 -y 272.91342 -z 4
n -t 0.0 -s 25 -S UP -v circle -c blue -x 64.658646 -y 211.40099 -z 4
n -t 0.0 -s 26 -S UP -v circle -c blue -x 346.728 -y 422.9994 -z 4
n -t 0.0 -s 27 -S UP -v circle -c blue -x 403.9712 -y 295.54633 -z 4
n -t 0.0 -s 28 -S UP -v circle -c blue -x 250.55573 -y 447.6737 -z 4
n -t 0.0 -s 29 -S UP -v circle -c blue -x 445.7641 -y 191.46147 -z 4
n -t 0.0 -s 30 -S UP -v circle -c blue -x 491.95068 -y 250.39864 -z 4
n -t 0.0 -s 31 -S UP -v circle -c blue -x 12.249321 -y 233.85886 -z 4
n -t 0.0 -s 32 -S UP -v circle -c blue -x 53.331642 -y 113.48271 -z 4
n -t 0.0 -s 33 -S UP -v circle -c blue -x 431.1279 -y 248.60745 -z 4
n -t 0.0 -s 34 -S UP -v circle -c blue -x 157.52574 -y 89.093864 -z 4
n -t 0.0 -s 35 -S UP -v circle -c blue -x 46.307 -y 401.6779 -z 4
n -t 0.0 -s 36 -S UP -v circle -c blue -x 7.0147514 -y 417.26498 -z 4
n -t 0.0 -s 37 -S UP -v circle -c blue -x 74.00719 -y 31.423866 -z 4
n -t 0.0 -s 38 -S UP -v circle -c blue -x 98.0168 -y 457.58945 -z 4
n -t 0.0 -s 39 -S UP -v circle -c blue -x 379.73734 -y 260.00647 -z 4
n -t 0.0 -s 40 -S UP -v circle -c blue -x 6.2549114 -y 207.72961 -z 4
n -t 0.0 -s 41 -S UP -v circle -c blue -x 34.537376 -y 9.556829 -z 4
n -t 0.0 -s 42 -S UP -v circle -c blue -x 30.377954 -y 372.5206 -z 4
n -t 0.0 -s 43 -S UP -v circle -c blue -x 499.72745 -y 150.71136 -z 4
n -t 0.0 -s 44 -S UP -v circle -c blue -x 164.94716 -y 377.20074 -z 4
n -t 0.0 -s 45 -S UP -v circle -c blue -x 338.25577 -y 296.08218 -z 4
n -t 0.0 -s 46 -S UP -v circle -c blue -x 67.93457 -y 54.82015 -z 4
n -t 0.0 -s 47 -S UP -v circle -c blue -x 284.2638 -y 75.003716 -z 4
n -t 0.0 -s 48 -S UP -v circle -c blue -x 37.11495 -y 106.65462 -z 4
n -t 0.0 -s 49 -S UP -v circle -c blue -x 248.91174 -y 14.792949 -z 4
n -t 0.0 -s 50 -S UP -v circle -c blue -x 228.95119 -y 343.78693 -z 4
n -t 0.0 -s 1 -S UP -v circle -c red -x 355.91187 -y 458.72522 -z 4
n -t 0.0 -s 3 -S UP -v circle -c red -x 279.2313 -y 364.12704 -z 4
n -t 0.0 -s 7 -S UP -v circle -c red -x 441.17444 -y 424.64993 -z 4
n -t 0.0 -s 15 -S UP -v circle -c blue -x 112.86971 -y 343.73532 -z 4
n -t 0.0 -s 31 -S UP -v circle -c blue -x 12.249321 -y 233.85886 -z 4
n -t 0.0 -s 32 -S UP -v circle -c blue -x 53.331642 -y 113.48271 -z 4
n -t 0.0 -s 16 -S UP -v circle -c blue -x 265.11722 -y 108.144585 -z 4
n -t 0.0 -s 33 -S UP -v circle -c blue -x 431.1279 -y 248.60745 -z 4
n -t 0.0 -s 34 -S UP -v circle -c blue -x 157.52574 -y 89.093864 -z 4
n -t 0.0 -s 8 -S UP -v circle -c red -x 322.23016 -y 227.3544 -z 4
n -t 0.0 -s 17 -S UP -v circle -c blue -x 310.33026 -y 297.9148 -z 4
n -t 0.0 -s 35 -S UP -v circle -c blue -x 46.307 -y 401.6779 -z 4
n -t 0.0 -s 36 -S UP -v circle -c blue -x 7.0147514 -y 417.26498 -z 4
n -t 0.0 -s 18 -S UP -v circle -c blue -x 128.94833 -y 414.9396 -z 4
n -t 0.0 -s 37 -S UP -v circle -c blue -x 74.00719 -y 31.423866 -z 4
n -t 0.0 -s 38 -S UP -v circle -c blue -x 98.0168 -y 457.58945 -z 4
n -t 0.0 -s 4 -S UP -v circle -c red -x 488.57538 -y 144.1066 -z 4
n -t 0.0 -s 9 -S UP -v circle -c blue -x 69.79549 -y 292.72043 -z 4
n -t 0.0 -s 19 -S UP -v circle -c blue -x 456.21747 -y 16.484201 -z 4
n -t 0.0 -s 39 -S UP -v circle -c blue -x 379.73734 -y 260.00647 -z 4
n -t 0.0 -s 40 -S UP -v circle -c blue -x 6.2549114 -y 207.72961 -z 4
n -t 0.0 -s 20 -S UP -v circle -c blue -x 416.43393 -y 176.49153 -z 4
n -t 0.0 -s 41 -S UP -v circle -c blue -x 34.537376 -y 9.556829 -z 4
n -t 0.0 -s 42 -S UP -v circle -c blue -x 30.377954 -y 372.5206 -z 4
n -t 0.0 -s 10 -S UP -v circle -c blue -x 139.53537 -y 470.58377 -z 4
n -t 0.0 -s 21 -S UP -v circle -c blue -x 206.15286 -y 62.56771 -z 4
n -t 0.0 -s 43 -S UP -v circle -c blue -x 499.72745 -y 150.71136 -z 4
n -t 0.0 -s 44 -S UP -v circle -c blue -x 164.94716 -y 377.20074 -z 4
n -t 0.0 -s 22 -S UP -v circle -c blue -x 440.45435 -y 131.3327 -z 4
n -t 0.0 -s 45 -S UP -v circle -c blue -x 338.25577 -y 296.08218 -z 4
n -t 0.0 -s 46 -S UP -v circle -c blue -x 67.93457 -y 54.82015 -z 4
n -t 0.0 -s 2 -S UP -v circle -c red -x 483.79437 -y 182.71468 -z 4
n -t 0.0 -s 5 -S UP -v circle -c red -x 207.40929 -y 163.88017 -z 4
n -t 0.0 -s 11 -S UP -v circle -c blue -x 257.0914 -y 181.94305 -z 4
n -t 0.0 -s 23 -S UP -v circle -c blue -x 443.84167 -y 81.92986 -z 4
n -t 0.0 -s 47 -S UP -v circle -c blue -x 284.2638 -y 75.003716 -z 4
n -t 0.0 -s 48 -S UP -v circle -c blue -x 37.11495 -y 106.65462 -z 4
n -t 0.0 -s 24 -S UP -v circle -c blue -x 465.66882 -y 272.91342 -z 4
n -t 0.0 -s 49 -S UP -v circle -c blue -x 248.91174 -y 14.792949 -z 4
n -t 0.0 -s 50 -S UP -v circle -c blue -x 228.95119 -y 343.78693 -z 4
n -t 0.0 -s 12 -S UP -v circle -c blue -x 395.78317 -y 185.49698 -z 4
n -t 0.0 -s 25 -S UP -v circle -c blue -x 64.658646 -y 211.40099 -z 4
n -t 0.0 -s 26 -S UP -v circle -c blue -x 346.728 -y 422.9994 -z 4
n -t 0.0 -s 6 -S UP -v circle -c red -x 179.71573 -y 334.4178 -z 4
n -t 0.0 -s 13 -S UP -v circle -c blue -x 111.86078 -y 425.74063 -z 4
n -t 0.0 -s 27 -S UP -v circle -c blue -x 403.9712 -y 295.54633 -z 4
n -t 0.0 -s 28 -S UP -v circle -c blue -x 250.55573 -y 447.6737 -z 4
n -t 0.0 -s 14 -S UP -v circle -c blue -x 66.40044 -y 397.03476 -z 4
n -t 0.0 -s 29 -S UP -v circle -c blue -x 445.7641 -y 191.46147 -z 4
n -t 0.0 -s 30 -S UP -v circle -c blue -x 491.95068 -y 250.39864 -z 4
n -t 1.3122381 -s 15 -S UP -v circle -c blue -x 114.70685 -y 338.95566 -z 4
n -t 3.9339957 -s 36 -S UP -v circle -c blue -x 35.518 -y 427.28748 -z 4
n -t 4.55077 -s 44 -S UP -v circle -c blue -x 160.62755 -y 463.49982 -z 4
n -t 5.724166 -s 3 -S UP -v circle -c red -x 184.0222 -y 377.95486 -z 4
n -t 5.88804 -s 27 -S UP -v circle -c blue -x 313.08307 -y 289.38925 -z 4
n -t 8.981814 -s 37 -S UP -v circle -c blue -x 2.8746872 -y 113.33639 -z 4
n -t 10.8176775 -s 40 -S UP -v circle -c blue -x 23.75472 -y 371.24445 -z 4
n -t 15.368436 -s 16 -S UP -v circle -c blue -x 147.10396 -y 28.411797 -z 4
n -t 16.142422 -s 22 -S UP -v circle -c blue -x 220.31364 -y 26.533218 -z 4
n -t 17.176624 -s 27 -S UP -v circle -c blue -x 314.73126 -y 74.54347 -z 4
n -t 17.410463 -s 18 -S UP -v circle -c blue -x 197.46182 -y 172.0328 -z 4
n -t 19.684471 -s 21 -S UP -v circle -c blue -x 212.0242 -y 269.3321 -z 4
n -t 19.99638 -s 29 -S UP -v circle -c blue -x 314.9012 -y 15.166809 -z 4
n -t 20.031002 -s 23 -S UP -v circle -c blue -x 365.70355 -y 166.52145 -z 4
n -t 21.519615 -s 32 -S UP -v circle -c blue -x 391.82065 -y 220.93535 -z 4
n -t 22.623224 -s 24 -S UP -v circle -c blue -x 174.4126 -y 250.49054 -z 4
n -t 22.893023 -s 17 -S UP -v circle -c blue -x 491.39023 -y 409.7283 -z 4
n -t 23.664183 -s 33 -S UP -v circle -c blue -x 371.81244 -y 50.928284 -z 4
n -t 24.771826 -s 30 -S UP -v circle -c blue -x 162.50592 -y 478.94672 -z 4
n -t 25.49608 -s 9 -S UP -v circle -c blue -x 446.67395 -y 110.00464 -z 4
n -t 26.86405 -s 37 -S UP -v circle -c blue -x 233.47522 -y 66.93459 -z 4
n -t 28.630283 -s 47 -S UP -v circle -c blue -x 430.6845 -y 190.92047 -z 4
n -t 28.646694 -s 10 -S UP -v circle -c blue -x 64.88867 -y 64.69864 -z 4
n -t 29.121078 -s 22 -S UP -v circle -c blue -x 77.13219 -y 154.55269 -z 4
n -t 29.467472 -s 1 -S UP -v circle -c red -x 54.61252 -y 29.358765 -z 4
n -t 30.18426 -s 20 -S UP -v circle -c blue -x 178.47005 -y 30.723145 -z 4
n -t 30.715752 -s 44 -S UP -v circle -c blue -x 103.43394 -y 209.81912 -z 4
n -t 31.446833 -s 29 -S UP -v circle -c blue -x 165.72925 -y 80.29012 -z 4
n -t 31.481256 -s 8 -S UP -v circle -c red -x 179.62619 -y 445.22226 -z 4
n -t 31.66401 -s 34 -S UP -v circle -c blue -x 154.60588 -y 165.26758 -z 4
n -t 31.758102 -s 40 -S UP -v circle -c blue -x 353.50278 -y 164.17195 -z 4
n -t 32.393757 -s 30 -S UP -v circle -c blue -x 150.70253 -y 420.2419 -z 4
n -t 33.095737 -s 1 -S UP -v circle -c red -x 51.94158 -y 98.83151 -z 4
n -t 33.103794 -s 23 -S UP -v circle -c blue -x 244.14594 -y 221.88347 -z 4
n -t 34.22362 -s 9 -S UP -v circle -c blue -x 364.45093 -y 117.86008 -z 4
n -t 34.614994 -s 44 -S UP -v circle -c blue -x 159.53166 -y 249.91774 -z 4
n -t 35.624603 -s 29 -S UP -v circle -c blue -x 121.705734 -y 95.52712 -z 4
n -t 38.96613 -s 4 -S UP -v circle -c red -x 49.92157 -y 186.8751 -z 4
n -t 40.03156 -s 49 -S UP -v circle -c blue -x 343.4278 -y 466.952 -z 4
n -t 40.505917 -s 13 -S UP -v circle -c blue -x 204.17451 -y 204.31921 -z 4
n -t 41.56191 -s 21 -S UP -v circle -c blue -x 477.87805 -y 430.88638 -z 4
n -t 42.345333 -s 27 -S UP -v circle -c blue -x 63.099396 -y 470.23688 -z 4
n -t 43.7684 -s 12 -S UP -v circle -c blue -x 305.06677 -y 497.3886 -z 4
n -t 44.265106 -s 25 -S UP -v circle -c blue -x 284.7786 -y 126.81527 -z 4
n -t 44.58279 -s 47 -S UP -v circle -c blue -x 321.68597 -y 409.9111 -z 4
n -t 44.939167 -s 1 -S UP -v circle -c red -x 43.750908 -y 329.44632 -z 4
n -t 45.985317 -s 10 -S UP -v circle -c blue -x 52.683926 -y 154.11534 -z 4
n -t 46.983665 -s 31 -S UP -v circle -c blue -x 362.56494 -y 60.43103 -z 4
n -t 48.72174 -s 18 -S UP -v circle -c blue -x 348.66644 -y 419.98932 -z 4
n -t 49.4337 -s 41 -S UP -v circle -c blue -x 290.00287 -y 451.01437 -z 4
n -t 49.75989 -s 23 -S UP -v circle -c blue -x 10.286179 -y 350.24905 -z 4
n -t 50.664143 -s 11 -S UP -v circle -c blue -x 92.60596 -y 362.548 -z 4
n -t 50.905323 -s 48 -S UP -v circle -c blue -x 319.5766 -y 315.9443 -z 4
n -t 50.942795 -s 15 -S UP -v circle -c blue -x 28.109253 -y 230.56496 -z 4
n -t 51.848854 -s 40 -S UP -v circle -c blue -x 58.167084 -y 291.29218 -z 4
n -t 52.454014 -s 33 -S UP -v circle -c blue -x 153.7569 -y 236.65916 -z 4
n -t 52.799965 -s 8 -S UP -v circle -c red -x 241.14291 -y 340.84546 -z 4
n -t 53.15547 -s 5 -S UP -v circle -c red -x 17.116959 -y 43.007812 -z 4
n -t 53.94206 -s 17 -S UP -v circle -c blue -x 288.66403 -y 241.24591 -z 4
n -t 59.4441 -s 13 -S UP -v circle -c blue -x 447.0197 -y 402.85504 -z 4
n -t 59.826565 -s 38 -S UP -v circle -c blue -x 340.00348 -y 432.19284 -z 4
n -t 60.502506 -s 8 -S UP -v circle -c red -x 235.71062 -y 487.16867 -z 4
n -t 63.008297 -s 48 -S UP -v circle -c blue -x 192.98628 -y 153.78218 -z 4
n -t 63.202972 -s 19 -S UP -v circle -c blue -x 354.3652 -y 324.46176 -z 4
n -t 63.494534 -s 17 -S UP -v circle -c blue -x 106.229355 -y 265.7294 -z 4
n -t 64.363014 -s 32 -S UP -v circle -c blue -x 234.97153 -y 490.08374 -z 4
n -t 64.49727 -s 22 -S UP -v circle -c blue -x 399.52795 -y 297.7979 -z 4
n -t 64.73815 -s 17 -S UP -v circle -c blue -x 119.88001 -y 276.67975 -z 4
n -t 65.23923 -s 14 -S UP -v circle -c blue -x 243.48532 -y 122.08206 -z 4
n -t 65.27029 -s 1 -S UP -v circle -c red -x 306.6977 -y 54.38272 -z 4
n -t 66.04897 -s 49 -S UP -v circle -c blue -x 441.5716 -y 134.9183 -z 4
n -t 66.45789 -s 15 -S UP -v circle -c blue -x 33.926918 -y 329.14468 -z 4
n -t 66.542595 -s 9 -S UP -v circle -c blue -x 134.78755 -y 255.48323 -z 4
n -t 66.91409 -s 11 -S UP -v circle -c blue -x 277.85126 -y 426.74713 -z 4
n -t 67.33159 -s 20 -S UP -v circle -c blue -x 478.26874 -y 256.8153 -z 4
n -t 67.86983 -s 33 -S UP -v circle -c blue -x 102.39145 -y 466.2417 -z 4
n -t 67.91685 -s 25 -S UP -v circle -c blue -x 56.19052 -y 259.22153 -z 4
n -t 69.564705 -s 49 -S UP -v circle -c blue -x 419.9313 -y 69.565956 -z 4
n -t 71.03673 -s 30 -S UP -v circle -c blue -x 383.14786 -y 498.78885 -z 4
n -t 71.5795 -s 40 -S UP -v circle -c blue -x 353.737 -y 497.4342 -z 4
n -t 72.413246 -s 14 -S UP -v circle -c blue -x 245.50015 -y 22.284813 -z 4
n -t 73.615326 -s 13 -S UP -v circle -c blue -x 479.81497 -y 121.49963 -z 4
n -t 73.913124 -s 12 -S UP -v circle -c blue -x 359.0028 -y 11.685242 -z 4
n -t 74.07765 -s 25 -S UP -v circle -c blue -x 86.1848 -y 139.83647 -z 4
n -t 74.48175 -s 15 -S UP -v circle -c blue -x 135.0896 -y 274.93524 -z 4
n -t 74.56377 -s 22 -S UP -v circle -c blue -x 455.9977 -y 487.55173 -z 4
n -t 75.15132 -s 33 -S UP -v circle -c blue -x 217.05461 -y 468.15955 -z 4
n -t 75.18143 -s 48 -S UP -v circle -c blue -x 36.81279 -y 187.02597 -z 4
n -t 76.201706 -s 27 -S UP -v circle -c blue -x 339.5375 -y 42.423584 -z 4
n -t 76.32215 -s 6 -S UP -v circle -c red -x 76.873505 -y 313.50812 -z 4
n -t 76.53173 -s 5 -S UP -v circle -c red -x 308.00507 -y 207.66887 -z 4
n -t 77.17477 -s 1 -S UP -v circle -c red -x 161.06644 -y 96.5764 -z 4
n -t 79.21436 -s 38 -S UP -v circle -c blue -x 320.81064 -y 121.04697 -z 4
n -t 81.54309 -s 17 -S UP -v circle -c blue -x 30.070297 -y 446.50433 -z 4
n -t 81.66538 -s 39 -S UP -v circle -c blue -x 394.0625 -y 163.47804 -z 4
n -t 81.89202 -s 14 -S UP -v circle -c blue -x 57.530914 -y 36.085316 -z 4
n -t 82.79166 -s 35 -S UP -v circle -c blue -x 106.376015 -y 136.17023 -z 4
n -t 84.07846 -s 50 -S UP -v circle -c blue -x 78.29512 -y 219.70842 -z 4
n -t 84.93154 -s 9 -S UP -v circle -c blue -x 10.555267 -y 395.7986 -z 4
n -t 85.73502 -s 19 -S UP -v circle -c blue -x 448.24985 -y 320.01956 -z 4
n -t 85.82739 -s 5 -S UP -v circle -c red -x 408.71222 -y 155.76897 -z 4
n -t 88.1947 -s 10 -S UP -v circle -c blue -x 166.43973 -y 214.98792 -z 4
n -t 89.57528 -s 47 -S UP -v circle -c blue -x 3.0857544 -y 405.65747 -z 4
n -t 90.03979 -s 38 -S UP -v circle -c blue -x 211.57166 -y 79.30355 -z 4
n -t 90.40574 -s 15 -S UP -v circle -c blue -x 434.08618 -y 269.67206 -z 4
n -t 91.14056 -s 11 -S UP -v circle -c blue -x 455.75708 -y 66.4122 -z 4
n -t 91.212074 -s 20 -S UP -v circle -c blue -x 160.71497 -y 340.95352 -z 4
n -t 93.96564 -s 33 -S UP -v circle -c blue -x 238.79092 -y 139.75049 -z 4
n -t 95.95605 -s 48 -S UP -v circle -c blue -x 72.68962 -y 393.8145 -z 4
n -t 96.03148 -s 43 -S UP -v circle -c blue -x 406.37018 -y 334.42792 -z 4
n -t 96.871025 -s 32 -S UP -v circle -c blue -x 285.5435 -y 328.51666 -z 4
n -t 98.45498 -s 9 -S UP -v circle -c blue -x 230.6995 -y 355.9705 -z 4
n -t 100.095825 -s 12 -S UP -v circle -c blue -x 474.27942 -y 499.06247 -z 4
n -t 100.8332 -s 36 -S UP -v circle -c blue -x 430.21368 -y 203.30394 -z 4
n -t 101.95668 -s 3 -S UP -v circle -c red -x 27.862244 -y 145.86336 -z 4
n -t 102.32075 -s 1 -S UP -v circle -c red -x 306.8997 -y 39.94206 -z 4
n -t 103.51556 -s 39 -S UP -v circle -c blue -x 319.33246 -y 464.52997 -z 4
n -t 104.22499 -s 22 -S UP -v circle -c blue -x 226.75826 -y 256.24496 -z 4
n -t 106.72489 -s 6 -S UP -v circle -c red -x 241.91774 -y 367.08676 -z 4
n -t 107.13468 -s 21 -S UP -v circle -c blue -x 427.08038 -y 326.888 -z 4
n -t 107.82136 -s 27 -S UP -v circle -c blue -x 255.99646 -y 74.283325 -z 4
n -t 109.16388 -s 23 -S UP -v circle -c blue -x 463.18658 -y 329.62143 -z 4
n -t 109.22769 -s 50 -S UP -v circle -c blue -x 489.46838 -y 261.96237 -z 4
n -t 109.84683 -s 36 -S UP -v circle -c blue -x 349.3999 -y 323.5274 -z 4
n -t 109.88448 -s 10 -S UP -v circle -c blue -x 318.7878 -y 343.8799 -z 4
n -t 111.78798 -s 22 -S UP -v circle -c blue -x 324.2915 -y 236.20784 -z 4
n -t 111.91484 -s 11 -S UP -v circle -c blue -x 250.44876 -y 121.5726 -z 4
n -t 113.827896 -s 32 -S UP -v circle -c blue -x 352.76337 -y 308.34512 -z 4
n -t 113.85251 -s 13 -S UP -v circle -c blue -x 146.32065 -y 301.74362 -z 4
n -t 115.33071 -s 19 -S UP -v circle -c blue -x 226.25565 -y 432.14883 -z 4
n -t 115.51927 -s 9 -S UP -v circle -c blue -x 244.83372 -y 454.32422 -z 4
n -t 119.846825 -s 17 -S UP -v circle -c blue -x 419.4972 -y 306.3006 -z 4
n -t 120.30788 -s 13 -S UP -v circle -c blue -x 205.219 -y 197.95006 -z 4
n -t 122.58942 -s 27 -S UP -v circle -c blue -x 425.9984 -y 268.88776 -z 4
n -t 122.77049 -s 3 -S UP -v circle -c red -x 139.88121 -y 131.29947 -z 4
n -t 123.21409 -s 9 -S UP -v circle -c blue -x 190.87991 -y 484.48352 -z 4
n -t 125.45805 -s 41 -S UP -v circle -c blue -x 148.09528 -y 89.547516 -z 4
n -t 125.496315 -s 48 -S UP -v circle -c blue -x 335.15552 -y 148.15059 -z 4
n -t 125.593864 -s 43 -S UP -v circle -c blue -x 285.22293 -y 222.46649 -z 4
n -t 126.77561 -s 36 -S UP -v circle -c blue -x 421.79428 -y 84.97534 -z 4
n -t 127.91313 -s 3 -S UP -v circle -c red -x 125.238846 -y 66.70676 -z 4
n -t 128.11047 -s 11 -S UP -v circle -c blue -x 21.445816 -y 32.80239 -z 4
n -t 130.24376 -s 20 -S UP -v circle -c blue -x 297.47867 -y 231.06683 -z 4
n -t 130.36484 -s 31 -S UP -v circle -c blue -x 1.6968994 -y 399.76608 -z 4
n -t 130.70146 -s 25 -S UP -v circle -c blue -x 470.97485 -y 418.59644 -z 4
n -t 132.17589 -s 40 -S UP -v circle -c blue -x 254.4189 -y 109.627686 -z 4
n -t 132.29181 -s 21 -S UP -v circle -c blue -x 231.34262 -y 325.01294 -z 4
n -t 133.55013 -s 22 -S UP -v circle -c blue -x 449.0309 -y 387.15454 -z 4
n -t 135.38025 -s 48 -S UP -v circle -c blue -x 200.60489 -y 232.10428 -z 4
n -t 135.58412 -s 17 -S UP -v circle -c blue -x 495.6059 -y 343.11032 -z 4
n -t 138.7955 -s 1 -S UP -v circle -c red -x 10.088837 -y 350.9922 -z 4
n -t 138.84796 -s 13 -S UP -v circle -c blue -x 229.44058 -y 315.63553 -z 4
n -t 141.4273 -s 11 -S UP -v circle -c blue -x 113.41501 -y 111.44508 -z 4
n -t 143.9304 -s 19 -S UP -v circle -c blue -x 226.1342 -y 177.37564 -z 4
n -t 145.65111 -s 36 -S UP -v circle -c blue -x 277.91528 -y 365.00458 -z 4
n -t 145.94168 -s 9 -S UP -v circle -c blue -x 336.02133 -y 115.749084 -z 4
n -t 152.19 -s 43 -S UP -v circle -c blue -x 36.352783 -y 477.26273 -z 4
n -t 152.43755 -s 48 -S UP -v circle -c blue -x 445.5611 -y 368.92578 -z 4
n -t 152.91052 -s 20 -S UP -v circle -c blue -x 138.73445 -y 247.6711 -z 4
n -t 154.9032 -s 5 -S UP -v circle -c red -x 53.084717 -y 450.77588 -z 4
n -t 156.01448 -s 14 -S UP -v circle -c blue -x 337.67572 -y 81.82783 -z 4
n -t 157.6795 -s 22 -S UP -v circle -c blue -x 289.64206 -y 198.3291 -z 4
n -t 159.45605 -s 9 -S UP -v circle -c blue -x 115.36322 -y 231.87999 -z 4
n -t 160.27885 -s 20 -S UP -v circle -c blue -x 114.18275 -y 381.06415 -z 4
n -t 160.61154 -s 8 -S UP -v circle -c red -x 386.13483 -y 488.71533 -z 4
n -t 161.68608 -s 40 -S UP -v circle -c blue -x 91.00061 -y 488.02255 -z 4
n -t 161.69693 -s 36 -S UP -v circle -c blue -x 477.88773 -y 310.73068 -z 4
n -t 162.6087 -s 27 -S UP -v circle -c blue -x 421.45667 -y 205.55145 -z 4
n -t 162.71715 -s 47 -S UP -v circle -c blue -x 104.32693 -y 155.29497 -z 4
n -t 162.9458 -s 35 -S UP -v circle -c blue -x 111.94269 -y 484.99783 -z 4
n -t 162.98795 -s 20 -S UP -v circle -c blue -x 80.11027 -y 385.4122 -z 4
n -t 163.78343 -s 28 -S UP -v circle -c blue -x 454.19028 -y 170.64001 -z 4
n -t 163.98993 -s 12 -S UP -v circle -c blue -x 228.9791 -y 213.36105 -z 4
n -t 166.81448 -s 21 -S UP -v circle -c blue -x 449.20328 -y 21.588348 -z 4
n -t 166.9818 -s 40 -S UP -v circle -c blue -x 108.318375 -y 425.76883 -z 4
n -t 168.22636 -s 1 -S UP -v circle -c red -x 336.49582 -y 63.846497 -z 4
n -t 172.49127 -s 5 -S UP -v circle -c red -x 301.85507 -y 233.4958 -z 4
n -t 172.98587 -s 42 -S UP -v circle -c blue -x 24.948927 -y 111.78497 -z 4
n -t 173.33542 -s 19 -S UP -v circle -c blue -x 168.74922 -y 310.509 -z 4
n -t 174.81097 -s 29 -S UP -v circle -c blue -x 105.926025 -y 215.97449 -z 4
n -t 174.83788 -s 11 -S UP -v circle -c blue -x 12.062637 -y 249.36003 -z 4
n -t 176.6662 -s 35 -S UP -v circle -c blue -x 313.90146 -y 456.74347 -z 4
n -t 177.03674 -s 19 -S UP -v circle -c blue -x 135.45316 -y 248.18657 -z 4
n -t 179.31163 -s 35 -S UP -v circle -c blue -x 344.55823 -y 494.07404 -z 4
n -t 182.69672 -s 48 -S UP -v circle -c blue -x 2.018158 -y 209.74045 -z 4
n -t 183.17511 -s 5 -S UP -v circle -c red -x 451.34024 -y 94.241196 -z 4
n -t 185.1281 -s 31 -S UP -v circle -c blue -x 350.02603 -y 302.1327 -z 4
n -t 185.87656 -s 6 -S UP -v circle -c red -x 303.8843 -y 85.76907 -z 4
n -t 185.94287 -s 49 -S UP -v circle -c blue -x 179.7451 -y 182.44829 -z 4
n -t 189.56873 -s 20 -S UP -v circle -c blue -x 435.38507 -y 192.9881 -z 4
n -t 194.27313 -s 49 -S UP -v circle -c blue -x 105.14882 -y 127.48004 -z 4
n -t 194.37013 -s 11 -S UP -v circle -c blue -x 176.04822 -y 425.1493 -z 4
n -t 195.08078 -s 20 -S UP -v circle -c blue -x 362.38562 -y 265.92877 -z 4
n -t 195.2403 -s 29 -S UP -v circle -c blue -x 149.38574 -y 424.74463 -z 4
n -t 197.18132 -s 19 -S UP -v circle -c blue -x 326.269 -y 296.7854 -z 4
n -t 200.15135 -s 36 -S UP -v circle -c blue -x 27.480774 -y 423.14218 -z 4
n -t 200.27368 -s 49 -S UP -v circle -c blue -x 54.24589 -y 139.11842 -z 4
n -t 204.56833 -s 35 -S UP -v circle -c blue -x 348.1903 -y 252.92917 -z 4
n -t 205.67795 -s 12 -S UP -v circle -c blue -x 291.15698 -y 178.0389 -z 4
n -t 206.26224 -s 50 -S UP -v circle -c blue -x 347.3202 -y 416.60126 -z 4
n -t 209.26524 -s 23 -S UP -v circle -c blue -x 367.43848 -y 134.64998 -z 4
n -t 209.52818 -s 37 -S UP -v circle -c blue -x 148.0722 -y 385.73868 -z 4
n -t 211.15254 -s 50 -S UP -v circle -c blue -x 429.90085 -y 465.8775 -z 4
n -t 211.85442 -s 19 -S UP -v circle -c blue -x 431.94482 -y 149.72609 -z 4
n -t 212.44981 -s 42 -S UP -v circle -c blue -x 316.29193 -y 271.3165 -z 4
n -t 213.46541 -s 36 -S UP -v circle -c blue -x 72.04279 -y 277.76422 -z 4
n -t 215.34834 -s 9 -S UP -v circle -c blue -x 420.80286 -y 344.51178 -z 4
n -t 217.33414 -s 41 -S UP -v circle -c blue -x 326.5218 -y 470.54886 -z 4
n -t 220.32135 -s 46 -S UP -v circle -c blue -x 315.80124 -y 282.78766 -z 4
n -t 221.07368 -s 20 -S UP -v circle -c blue -x 452.55954 -y 487.23816 -z 4
n -t 222.48886 -s 34 -S UP -v circle -c blue -x 272.6014 -y 451.66174 -z 4
n -t 222.84137 -s 12 -S UP -v circle -c blue -x 129.55568 -y 60.461395 -z 4
n -t 223.02463 -s 9 -S UP -v circle -c blue -x 433.13718 -y 437.25253 -z 4
n -t 223.27925 -s 6 -S UP -v circle -c red -x 209.50046 -y 386.5336 -z 4
n -t 223.52863 -s 44 -S UP -v circle -c blue -x 467.57428 -y 477.52145 -z 4
n -t 224.09828 -s 25 -S UP -v circle -c blue -x 123.353 -y 97.87836 -z 4
n -t 224.32823 -s 22 -S UP -v circle -c blue -x 198.0323 -y 408.15027 -z 4
n -t 225.6957 -s 36 -S UP -v circle -c blue -x 196.15875 -y 92.751465 -z 4
n -t 226.39786 -s 21 -S UP -v circle -c blue -x 387.058 -y 190.12773 -z 4
n -t 230.66986 -s 37 -S UP -v circle -c blue -x 398.03043 -y 66.36221 -z 4
n -t 233.16597 -s 46 -S UP -v circle -c blue -x 100.9019 -y 280.93936 -z 4
n -t 233.28386 -s 13 -S UP -v circle -c blue -x 274.2404 -y 7.4125977 -z 4
n -t 233.84732 -s 6 -S UP -v circle -c red -x 385.28333 -y 365.11655 -z 4
n -t 234.1042 -s 31 -S UP -v circle -c blue -x 344.86792 -y 73.18536 -z 4
n -t 235.31691 -s 33 -S UP -v circle -c blue -x 71.64749 -y 170.8722 -z 4
n -t 236.00851 -s 31 -S UP -v circle -c blue -x 328.59497 -y 45.329056 -z 4
n -t 236.0665 -s 12 -S UP -v circle -c blue -x 40.304543 -y 79.32259 -z 4
n -t 238.94182 -s 41 -S UP -v circle -c blue -x 294.65024 -y 264.90768 -z 4
n -t 240.6657 -s 22 -S UP -v circle -c blue -x 432.08334 -y 242.54056 -z 4
n -t 243.54453 -s 44 -S UP -v circle -c blue -x 110.50543 -y 462.08704 -z 4
n -t 244.21022 -s 23 -S UP -v circle -c blue -x 164.90012 -y 165.93694 -z 4
n -t 246.77612 -s 34 -S UP -v circle -c blue -x 52.51924 -y 458.5311 -z 4
n -t 247.29836 -s 37 -S UP -v circle -c blue -x 352.46893 -y 334.6145 -z 4
n -t 247.41154 -s 43 -S UP -v circle -c blue -x 388.5489 -y 99.47107 -z 4
n -t 249.47295 -s 13 -S UP -v circle -c blue -x 222.12639 -y 260.3265 -z 4
n -t 250.54741 -s 16 -S UP -v circle -c blue -x 341.51794 -y 200.91904 -z 4
n -t 251.94968 -s 11 -S UP -v circle -c blue -x 455.4256 -y 104.133545 -z 4
n -t 252.00684 -s 43 -S UP -v circle -c blue -x 456.9849 -y 59.45059 -z 4
n -t 252.4891 -s 35 -S UP -v circle -c blue -x 345.1605 -y 398.44025 -z 4
n -t 253.06815 -s 13 -S UP -v circle -c blue -x 156.371 -y 262.67758 -z 4
n -t 254.34169 -s 29 -S UP -v circle -c blue -x 123.35841 -y 148.34933 -z 4
n -t 254.78786 -s 46 -S UP -v circle -c blue -x 472.8227 -y 328.57574 -z 4
n -t 256.40155 -s 48 -S UP -v circle -c blue -x 2.337951 -y 36.903275 -z 4
n -t 256.85068 -s 21 -S UP -v circle -c blue -x 297.96393 -y 401.31003 -z 4
n -t 257.22632 -s 49 -S UP -v circle -c blue -x 497.9202 -y 360.48428 -z 4
n -t 260.2477 -s 41 -S UP -v circle -c blue -x 385.5717 -y 164.1432 -z 4
n -t 260.4601 -s 42 -S UP -v circle -c blue -x 130.16776 -y 437.66232 -z 4
n -t 261.97403 -s 33 -S UP -v circle -c blue -x 281.12808 -y 426.2249 -z 4
n -t 262.5863 -s 22 -S UP -v circle -c blue -x 168.45816 -y 243.34087 -z 4
n -t 262.6496 -s 6 -S UP -v circle -c red -x 486.6267 -y 14.642334 -z 4
n -t 263.00064 -s 20 -S UP -v circle -c blue -x 125.21005 -y 77.96417 -z 4
n -t 263.01276 -s 23 -S UP -v circle -c blue -x 392.7833 -y 367.26233 -z 4
n -t 269.86197 -s 10 -S UP -v circle -c blue -x 44.231934 -y 92.115005 -z 4
n -t 271.5629 -s 35 -S UP -v circle -c blue -x 460.43338 -y 388.46063 -z 4
n -t 272.04172 -s 11 -S UP -v circle -c blue -x 91.11899 -y 215.43578 -z 4
n -t 272.07828 -s 13 -S UP -v circle -c blue -x 300.10522 -y 101.0567 -z 4
n -t 272.1673 -s 22 -S UP -v circle -c blue -x 15.611603 -y 237.94052 -z 4
n -t 272.6301 -s 3 -S UP -v circle -c red -x 52.02002 -y 432.81757 -z 4
n -t 272.63232 -s 23 -S UP -v circle -c blue -x 300.5599 -y 200.56993 -z 4
n -t 272.73978 -s 46 -S UP -v circle -c blue -x 130.16315 -y 301.8876 -z 4
n -t 273.26624 -s 34 -S UP -v circle -c blue -x 367.61273 -y 198.98074 -z 4
n -t 274.2176 -s 32 -S UP -v circle -c blue -x 90.12903 -y 175.02681 -z 4
n -t 278.17593 -s 37 -S UP -v circle -c blue -x 181.78632 -y 269.67365 -z 4
n -t 278.72156 -s 29 -S UP -v circle -c blue -x 465.98346 -y 279.90186 -z 4
n -t 278.79813 -s 34 -S UP -v circle -c blue -x 391.66266 -y 246.95468 -z 4
n -t 280.60535 -s 35 -S UP -v circle -c blue -x 428.40634 -y 241.24081 -z 4
n -t 281.64398 -s 47 -S UP -v circle -c blue -x 475.2755 -y 339.71405 -z 4
n -t 282.8339 -s 31 -S UP -v circle -c blue -x 92.74509 -y 407.1515 -z 4
n -t 283.16788 -s 48 -S UP -v circle -c blue -x 467.68564 -y 1.1200829 -z 4
n -t 283.1771 -s 23 -S UP -v circle -c blue -x 466.56796 -y 74.0388 -z 4
n -t 283.65027 -s 20 -S UP -v circle -c blue -x 162.2825 -y 477.76514 -z 4
n -t 286.69897 -s 49 -S UP -v circle -c blue -x 445.83075 -y 198.09631 -z 4
n -t 289.42636 -s 21 -S UP -v circle -c blue -x 489.3872 -y 463.55078 -z 4
n -t 289.8997 -s 5 -S UP -v circle -c red -x 13.884857 -y 10.291939 -z 4
n -t 290.85312 -s 29 -S UP -v circle -c blue -x 270.69467 -y 411.6462 -z 4
n -t 291.4857 -s 22 -S UP -v circle -c blue -x 154.85797 -y 21.749924 -z 4
n -t 291.48718 -s 11 -S UP -v circle -c blue -x 269.49857 -y 357.44656 -z 4
n -t 294.02014 -s 43 -S UP -v circle -c blue -x 353.50168 -y 193.43968 -z 4
n -t 294.14215 -s 32 -S UP -v circle -c blue -x 253.03354 -y 28.589035 -z 4
n -t 298.14377 -s 22 -S UP -v circle -c blue -x 113.225914 -y 121.06215 -z 4
n -t 298.48358 -s 28 -S UP -v circle -c blue -x 262.67035 -y 398.4876 -z 4
n -t 299.43558 -s 36 -S UP -v circle -c blue -x 393.79453 -y 42.88992 -z 4
n -t 300.62515 -s 49 -S UP -v circle -c blue -x 417.75937 -y 174.15346 -z 4
n -t 301.84357 -s 41 -S UP -v circle -c blue -x 89.24701 -y 324.1447 -z 4
n -t 302.18234 -s 6 -S UP -v circle -c red -x 163.35779 -y 1.1460695 -z 4
n -t 302.28336 -s 34 -S UP -v circle -c blue -x 406.71442 -y 23.247162 -z 4
n -t 306.88998 -s 25 -S UP -v circle -c blue -x 119.44615 -y 290.10333 -z 4
n -t 308.5035 -s 3 -S UP -v circle -c red -x 115.45101 -y 113.7023 -z 4
n -t 308.57367 -s 46 -S UP -v circle -c blue -x 402.1898 -y 473.64105 -z 4
n -t 309.95966 -s 29 -S UP -v circle -c blue -x 20.359406 -y 153.09286 -z 4
n -t 311.8576 -s 20 -S UP -v circle -c blue -x 14.433441 -y 407.3316 -z 4
n -t 312.4521 -s 1 -S UP -v circle -c red -x 18.381226 -y 205.17943 -z 4
n -t 312.8411 -s 43 -S UP -v circle -c blue -x 217.98674 -y 465.83997 -z 4
n -t 314.03464 -s 48 -S UP -v circle -c blue -x 462.1858 -y 187.82378 -z 4
n -t 314.3556 -s 22 -S UP -v circle -c blue -x 175.3232 -y 387.476 -z 4
n -t 315.16898 -s 9 -S UP -v circle -c blue -x 98.84238 -y 75.86203 -z 4
n -t 317.40576 -s 25 -S UP -v circle -c blue -x 71.362114 -y 100.68552 -z 4
n -t 320.8128 -s 3 -S UP -v circle -c red -x 334.3625 -y 20.84259 -z 4
n -t 321.00656 -s 41 -S UP -v circle -c blue -x 436.08203 -y 166.35117 -z 4
n -t 322.48328 -s 49 -S UP -v circle -c blue -x 11.998657 -y 276.72018 -z 4
n -t 323.21262 -s 6 -S UP -v circle -c red -x 58.98001 -y 355.6825 -z 4
n -t 324.576 -s 31 -S UP -v circle -c blue -x 470.03818 -y 323.91196 -z 4
n -t 328.01468 -s 10 -S UP -v circle -c blue -x 341.23077 -y 289.30383 -z 4
n -t 328.35944 -s 37 -S UP -v circle -c blue -x 50.192276 -y 435.57138 -z 4
n -t 328.76807 -s 22 -S UP -v circle -c blue -x 245.17093 -y 275.97018 -z 4
n -t 332.9302 -s 34 -S UP -v circle -c blue -x 76.39148 -y 413.2865 -z 4