# Trace file generated by Jist/Swans Version 1.0.6. at Fri Jul 26 18:33:36 BRT 2013
V -t * -v 1.0a5 -a 0
W -t * -x 410 -y 410
A -t * -n 1 -p 0 -o 0xffffffff -c 31 -a 1
A -t * -h 1 -m 2147483647 -s 0
n -t 0.0 -s 1 -S UP -v circle -c red -x 0.0 -y 0.0 -z 4
n -t 0.0 -s 2 -S UP -v circle -c red -x 0.5 -y 0.0 -z 4
n -t 0.0 -s 3 -S UP -v circle -c red -x 1.0 -y 0.0 -z 4
n -t 0.0 -s 4 -S UP -v circle -c red -x 1.5 -y 0.0 -z 4
n -t 0.0 -s 5 -S UP -v circle -c red -x 2.0 -y 0.0 -z 4
n -t 0.0 -s 6 -S UP -v circle -c red -x 2.5 -y 0.0 -z 4
n -t 0.0 -s 7 -S UP -v circle -c red -x 3.0 -y 0.0 -z 4
n -t 0.0 -s 8 -S UP -v circle -c red -x 3.5 -y 0.0 -z 4
n -t 0.0 -s 9 -S UP -v circle -c blue -x 4.0 -y 0.0 -z 4
n -t 0.0 -s 10 -S UP -v circle -c blue -x 4.5 -y 0.0 -z 4
n -t 0.0 -s 11 -S UP -v circle -c blue -x 5.0 -y 0.0 -z 4
n -t 0.0 -s 12 -S UP -v circle -c blue -x 5.5 -y 0.0 -z 4
n -t 0.0 -s 13 -S UP -v circle -c blue -x 6.0 -y 0.0 -z 4
n -t 0.0 -s 14 -S UP -v circle -c blue -x 6.5 -y 0.0 -z 4
n -t 0.0 -s 15 -S UP -v circle -c blue -x 7.0 -y 0.0 -z 4
n -t 0.0 -s 16 -S UP -v circle -c blue -x 7.5 -y 0.0 -z 4
n -t 0.0 -s 17 -S UP -v circle -c blue -x 8.0 -y 0.0 -z 4
n -t 0.0 -s 18 -S UP -v circle -c blue -x 8.5 -y 0.0 -z 4
n -t 0.0 -s 19 -S UP -v circle -c blue -x 9.0 -y 0.0 -z 4
n -t 0.0 -s 20 -S UP -v circle -c blue -x 9.5 -y 0.0 -z 4
n -t 0.0 -s 21 -S UP -v circle -c blue -x 10.0 -y 0.0 -z 4
n -t 0.0 -s 22 -S UP -v circle -c blue -x 10.5 -y 0.0 -z 4
n -t 0.0 -s 23 -S UP -v circle -c blue -x 11.0 -y 0.0 -z 4
n -t 0.0 -s 24 -S UP -v circle -c blue -x 11.5 -y 0.0 -z 4
n -t 0.0 -s 25 -S UP -v circle -c blue -x 12.0 -y 0.0 -z 4
n -t 0.0 -s 26 -S UP -v circle -c blue -x 12.5 -y 0.0 -z 4
n -t 0.0 -s 27 -S UP -v circle -c blue -x 13.0 -y 0.0 -z 4
n -t 0.0 -s 28 -S UP -v circle -c blue -x 13.5 -y 0.0 -z 4
n -t 0.0 -s 29 -S UP -v circle -c blue -x 14.0 -y 0.0 -z 4
n -t 0.0 -s 30 -S UP -v circle -c blue -x 14.5 -y 0.0 -z 4
n -t 0.0 -s 31 -S UP -v circle -c blue -x 15.0 -y 0.0 -z 4
n -t 0.0 -s 32 -S UP -v circle -c blue -x 15.5 -y 0.0 -z 4
n -t 0.0 -s 33 -S UP -v circle -c blue -x 16.0 -y 0.0 -z 4
n -t 0.0 -s 34 -S UP -v circle -c blue -x 16.5 -y 0.0 -z 4
n -t 0.0 -s 35 -S UP -v circle -c blue -x 17.0 -y 0.0 -z 4
n -t 0.0 -s 36 -S UP -v circle -c blue -x 17.5 -y 0.0 -z 4
n -t 0.0 -s 37 -S UP -v circle -c blue -x 18.0 -y 0.0 -z 4
n -t 0.0 -s 38 -S UP -v circle -c blue -x 18.5 -y 0.0 -z 4
n -t 0.0 -s 39 -S UP -v circle -c blue -x 19.0 -y 0.0 -z 4
n -t 0.0 -s 40 -S UP -v circle -c blue -x 19.5 -y 0.0 -z 4
n -t 0.0 -s 41 -S UP -v circle -c blue -x 20.0 -y 0.0 -z 4
n -t 0.0 -s 42 -S UP -v circle -c blue -x 20.5 -y 0.0 -z 4
n -t 0.0 -s 43 -S UP -v circle -c blue -x 21.0 -y 0.0 -z 4
n -t 0.0 -s 44 -S UP -v circle -c blue -x 21.5 -y 0.0 -z 4
n -t 0.0 -s 45 -S UP -v circle -c blue -x 22.0 -y 0.0 -z 4
n -t 0.0 -s 46 -S UP -v circle -c blue -x 22.5 -y 0.0 -z 4
n -t 0.0 -s 47 -S UP -v circle -c blue -x 23.0 -y 0.0 -z 4
n -t 0.0 -s 48 -S UP -v circle -c blue -x 23.5 -y 0.0 -z 4
n -t 0.0 -s 49 -S UP -v circle -c blue -x 24.0 -y 0.0 -z 4
n -t 0.0 -s 50 -S UP -v circle -c blue -x 24.5 -y 0.0 -z 4
n -t 0.0 -s 1 -S UP -v circle -c red -x 0.0 -y 0.0 -z 4
n -t 0.0 -s 3 -S UP -v circle -c red -x 1.0 -y 0.0 -z 4
n -t 0.0 -s 7 -S UP -v circle -c red -x 3.0 -y 0.0 -z 4
n -t 0.0 -s 15 -S UP -v circle -c blue -x 7.0 -y 0.0 -z 4
n -t 0.0 -s 31 -S UP -v circle -c blue -x 15.0 -y 0.0 -z 4
n -t 0.0 -s 32 -S UP -v circle -c blue -x 15.5 -y 0.0 -z 4
n -t 0.0 -s 16 -S UP -v circle -c blue -x 7.5 -y 0.0 -z 4
n -t 0.0 -s 33 -S UP -v circle -c blue -x 16.0 -y 0.0 -z 4
n -t 0.0 -s 34 -S UP -v circle -c blue -x 16.5 -y 0.0 -z 4
n -t 0.0 -s 8 -S UP -v circle -c red -x 3.5 -y 0.0 -z 4
n -t 0.0 -s 17 -S UP -v circle -c blue -x 8.0 -y 0.0 -z 4
n -t 0.0 -s 35 -S UP -v circle -c blue -x 17.0 -y 0.0 -z 4
n -t 0.0 -s 36 -S UP -v circle -c blue -x 17.5 -y 0.0 -z 4
n -t 0.0 -s 18 -S UP -v circle -c blue -x 8.5 -y 0.0 -z 4
n -t 0.0 -s 37 -S UP -v circle -c blue -x 18.0 -y 0.0 -z 4
n -t 0.0 -s 38 -S UP -v circle -c blue -x 18.5 -y 0.0 -z 4
n -t 0.0 -s 4 -S UP -v circle -c red -x 1.5 -y 0.0 -z 4
n -t 0.0 -s 9 -S UP -v circle -c blue -x 4.0 -y 0.0 -z 4
n -t 0.0 -s 19 -S UP -v circle -c blue -x 9.0 -y 0.0 -z 4
n -t 0.0 -s 39 -S UP -v circle -c blue -x 19.0 -y 0.0 -z 4
n -t 0.0 -s 40 -S UP -v circle -c blue -x 19.5 -y 0.0 -z 4
n -t 0.0 -s 20 -S UP -v circle -c blue -x 9.5 -y 0.0 -z 4
n -t 0.0 -s 41 -S UP -v circle -c blue -x 20.0 -y 0.0 -z 4
n -t 0.0 -s 42 -S UP -v circle -c blue -x 20.5 -y 0.0 -z 4
n -t 0.0 -s 10 -S UP -v circle -c blue -x 4.5 -y 0.0 -z 4
n -t 0.0 -s 21 -S UP -v circle -c blue -x 10.0 -y 0.0 -z 4
n -t 0.0 -s 43 -S UP -v circle -c blue -x 21.0 -y 0.0 -z 4
n -t 0.0 -s 44 -S UP -v circle -c blue -x 21.5 -y 0.0 -z 4
n -t 0.0 -s 22 -S UP -v circle -c blue -x 10.5 -y 0.0 -z 4
n -t 0.0 -s 45 -S UP -v circle -c blue -x 22.0 -y 0.0 -z 4
n -t 0.0 -s 46 -S UP -v circle -c blue -x 22.5 -y 0.0 -z 4
n -t 0.0 -s 2 -S UP -v circle -c red -x 0.5 -y 0.0 -z 4
n -t 0.0 -s 5 -S UP -v circle -c red -x 2.0 -y 0.0 -z 4
n -t 0.0 -s 11 -S UP -v circle -c blue -x 5.0 -y 0.0 -z 4
n -t 0.0 -s 23 -S UP -v circle -c blue -x 11.0 -y 0.0 -z 4
n -t 0.0 -s 47 -S UP -v circle -c blue -x 23.0 -y 0.0 -z 4
n -t 0.0 -s 48 -S UP -v circle -c blue -x 23.5 -y 0.0 -z 4
n -t 0.0 -s 24 -S UP -v circle -c blue -x 11.5 -y 0.0 -z 4
n -t 0.0 -s 49 -S UP -v circle -c blue -x 24.0 -y 0.0 -z 4
n -t 0.0 -s 50 -S UP -v circle -c blue -x 24.5 -y 0.0 -z 4
n -t 0.0 -s 12 -S UP -v circle -c blue -x 5.5 -y 0.0 -z 4
n -t 0.0 -s 25 -S UP -v circle -c blue -x 12.0 -y 0.0 -z 4
n -t 0.0 -s 26 -S UP -v circle -c blue -x 12.5 -y 0.0 -z 4
n -t 0.0 -s 6 -S UP -v circle -c red -x 2.5 -y 0.0 -z 4
n -t 0.0 -s 13 -S UP -v circle -c blue -x 6.0 -y 0.0 -z 4
n -t 0.0 -s 27 -S UP -v circle -c blue -x 13.0 -y 0.0 -z 4
n -t 0.0 -s 28 -S UP -v circle -c blue -x 13.5 -y 0.0 -z 4
n -t 0.0 -s 14 -S UP -v circle -c blue -x 6.5 -y 0.0 -z 4
n -t 0.0 -s 29 -S UP -v circle -c blue -x 14.0 -y 0.0 -z 4
n -t 0.0 -s 30 -S UP -v circle -c blue -x 14.5 -y 0.0 -z 4
n -t 5.2552686 -s 38 -S UP -v circle -c blue -x 93.01998 -y 44.103855 -z 4
n -t 6.7556734 -s 35 -S UP -v circle -c blue -x 51.90367 -y 7.91762 -z 4
n -t 7.148324 -s 47 -S UP -v circle -c blue -x 51.210236 -y 117.97991 -z 4
n -t 11.300785 -s 47 -S UP -v circle -c blue -x 117.5496 -y 86.97849 -z 4
n -t 12.441258 -s 4 -S UP -v circle -c red -x 102.21639 -y 153.82912 -z 4
n -t 13.19067 -s 11 -S UP -v circle -c blue -x 240.11864 -y 13.23485 -z 4
n -t 14.114188 -s 36 -S UP -v circle -c blue -x 94.36734 -y 156.65457 -z 4
n -t 14.46428 -s 27 -S UP -v circle -c blue -x 45.26677 -y 211.96082 -z 4
n -t 14.550059 -s 7 -S UP -v circle -c red -x 177.00395 -y 144.37196 -z 4
n -t 15.869781 -s 41 -S UP -v circle -c blue -x 50.11032 -y 288.926 -z 4
n -t 16.167995 -s 30 -S UP -v circle -c blue -x 314.24142 -y 115.31487 -z 4
n -t 16.403912 -s 40 -S UP -v circle -c blue -x 86.37733 -y 190.11932 -z 4
n -t 16.74507 -s 22 -S UP -v circle -c blue -x 309.37912 -y 75.93953 -z 4
n -t 17.218687 -s 25 -S UP -v circle -c blue -x 327.34854 -y 46.5035 -z 4
n -t 21.293562 -s 21 -S UP -v circle -c blue -x 45.63715 -y 214.4709 -z 4
n -t 22.449959 -s 20 -S UP -v circle -c blue -x 266.9104 -y 231.44862 -z 4
n -t 22.553305 -s 31 -S UP -v circle -c blue -x 343.233 -y 51.646896 -z 4
n -t 24.086718 -s 44 -S UP -v circle -c blue -x 58.612164 -y 104.650734 -z 4
n -t 24.589859 -s 26 -S UP -v circle -c blue -x 43.617065 -y 82.15392 -z 4
n -t 24.88572 -s 50 -S UP -v circle -c blue -x 61.37492 -y 490.43353 -z 4
n -t 24.892227 -s 33 -S UP -v circle -c blue -x 467.45596 -y 195.41197 -z 4
n -t 25.986397 -s 46 -S UP -v circle -c blue -x 139.04814 -y 219.83171 -z 4
n -t 26.462292 -s 32 -S UP -v circle -c blue -x 90.760254 -y 451.99033 -z 4
n -t 26.660236 -s 33 -S UP -v circle -c blue -x 448.57626 -y 177.58888 -z 4
n -t 27.413393 -s 16 -S UP -v circle -c blue -x 17.80482 -y 394.7118 -z 4
n -t 29.235077 -s 45 -S UP -v circle -c blue -x 358.50095 -y 104.325676 -z 4
n -t 29.871195 -s 38 -S UP -v circle -c blue -x 492.02472 -y 60.593445 -z 4
n -t 29.950722 -s 44 -S UP -v circle -c blue -x 72.68304 -y 22.79786 -z 4
n -t 30.490303 -s 36 -S UP -v circle -c blue -x 350.03625 -y 336.43628 -z 4
n -t 31.301983 -s 3 -S UP -v circle -c red -x 229.84732 -y 241.5237 -z 4
n -t 33.193504 -s 11 -S UP -v circle -c blue -x 479.89536 -y 197.59296 -z 4
n -t 33.778336 -s 23 -S UP -v circle -c blue -x 206.39182 -y 439.2454 -z 4
n -t 35.137398 -s 2 -S UP -v circle -c red -x 219.7411 -y 296.08478 -z 4
n -t 36.096325 -s 20 -S UP -v circle -c blue -x 143.20163 -y 473.84244 -z 4
n -t 37.81086 -s 36 -S UP -v circle -c blue -x 229.73267 -y 415.9996 -z 4
n -t 37.868763 -s 8 -S UP -v circle -c red -x 238.83292 -y 237.37814 -z 4
n -t 38.773445 -s 3 -S UP -v circle -c red -x 249.14525 -y 252.83958 -z 4
n -t 39.436573 -s 12 -S UP -v circle -c blue -x 272.29544 -y 373.4324 -z 4
n -t 39.449657 -s 45 -S UP -v circle -c blue -x 172.57819 -y 40.696472 -z 4
n -t 40.055653 -s 7 -S UP -v circle -c red -x 478.80023 -y 193.99025 -z 4
n -t 40.236942 -s 17 -S UP -v circle -c blue -x 365.76144 -y 467.22125 -z 4
n -t 40.364643 -s 31 -S UP -v circle -c blue -x 240.95004 -y 384.96454 -z 4
n -t 40.77363 -s 29 -S UP -v circle -c blue -x 490.539 -y 432.71658 -z 4
n -t 43.187798 -s 31 -S UP -v circle -c blue -x 208.71228 -y 384.92465 -z 4
n -t 44.19775 -s 30 -S UP -v circle -c blue -x 234.92282 -y 452.36868 -z 4
n -t 44.599606 -s 22 -S UP -v circle -c blue -x 96.132706 -y 243.5696 -z 4
n -t 45.820217 -s 11 -S UP -v circle -c blue -x 411.86313 -y 57.32399 -z 4
n -t 46.636974 -s 6 -S UP -v circle -c red -x 450.2808 -y 66.2979 -z 4
n -t 47.51078 -s 13 -S UP -v circle -c blue -x 371.35794 -y 163.468 -z 4
n -t 50.40996 -s 7 -S UP -v circle -c red -x 416.90857 -y 119.6202 -z 4
n -t 50.610565 -s 19 -S UP -v circle -c blue -x 258.83176 -y 321.02765 -z 4
n -t 51.833725 -s 39 -S UP -v circle -c blue -x 149.8522 -y 66.11688 -z 4
n -t 52.337337 -s 38 -S UP -v circle -c blue -x 72.76651 -y 101.82932 -z 4
n -t 52.374004 -s 23 -S UP -v circle -c blue -x 256.67136 -y 306.6949 -z 4
n -t 53.84185 -s 31 -S UP -v circle -c blue -x 393.45474 -y 444.44846 -z 4
n -t 54.35668 -s 4 -S UP -v circle -c red -x 459.7023 -y 34.77658 -z 4
n -t 55.193226 -s 44 -S UP -v circle -c blue -x 480.18173 -y 295.3962 -z 4
n -t 55.247276 -s 42 -S UP -v circle -c blue -x 222.40349 -y 0.9685371 -z 4
n -t 57.173836 -s 1 -S UP -v circle -c red -x 259.3296 -y 225.08763 -z 4
n -t 58.051407 -s 11 -S UP -v circle -c blue -x 437.86844 -y 248.08571 -z 4
n -t 59.547596 -s 15 -S UP -v circle -c blue -x 187.43239 -y 285.90195 -z 4
n -t 61.4375 -s 3 -S UP -v circle -c red -x 39.99344 -y 486.24133 -z 4
n -t 62.98571 -s 25 -S UP -v circle -c blue -x 56.3378 -y 420.5628 -z 4
n -t 63.1384 -s 2 -S UP -v circle -c red -x 344.3441 -y 106.31596 -z 4
n -t 63.46579 -s 16 -S UP -v circle -c blue -x 430.05356 -y 93.78693 -z 4
n -t 64.52927 -s 7 -S UP -v circle -c red -x 195.88356 -y 194.58797 -z 4
n -t 65.92487 -s 26 -S UP -v circle -c blue -x 420.19763 -y 90.73927 -z 4
n -t 67.008675 -s 42 -S UP -v circle -c blue -x 220.32434 -y 235.49536 -z 4
n -t 67.02143 -s 17 -S UP -v circle -c blue -x 174.75134 -y 247.27065 -z 4
n -t 68.7053 -s 32 -S UP -v circle -c blue -x 382.8 -y 144.89847 -z 4
n -t 69.270676 -s 8 -S UP -v circle -c red -x 269.9676 -y 493.20975 -z 4
n -t 69.54733 -s 13 -S UP -v circle -c blue -x 468.45703 -y 482.1662 -z 4
n -t 71.813866 -s 30 -S UP -v circle -c blue -x 489.62057 -y 148.7969 -z 4
n -t 72.39403 -s 35 -S UP -v circle -c blue -x 397.45123 -y 448.67053 -z 4
n -t 72.42143 -s 14 -S UP -v circle -c blue -x 461.0269 -y 301.93762 -z 4
n -t 74.32842 -s 12 -S UP -v circle -c blue -x 40.747818 -y 152.35936 -z 4
n -t 74.71243 -s 30 -S UP -v circle -c blue -x 435.53027 -y 134.76251 -z 4
n -t 75.85423 -s 15 -S UP -v circle -c blue -x 267.29996 -y 251.81073 -z 4
n -t 76.26986 -s 42 -S UP -v circle -c blue -x 357.4446 -y 117.375435 -z 4
n -t 76.5683 -s 36 -S UP -v circle -c blue -x 115.91905 -y 20.51831 -z 4
n -t 77.00965 -s 11 -S UP -v circle -c blue -x 201.61444 -y 215.23965 -z 4
n -t 77.09907 -s 4 -S UP -v circle -c red -x 468.90607 -y 349.32928 -z 4
n -t 78.49218 -s 21 -S UP -v circle -c blue -x 264.08182 -y 463.97394 -z 4
n -t 81.20595 -s 32 -S UP -v circle -c blue -x 369.9174 -y 25.05848 -z 4
n -t 81.597275 -s 17 -S UP -v circle -c blue -x 2.1940613 -y 331.92593 -z 4
n -t 83.55044 -s 23 -S UP -v circle -c blue -x 456.07474 -y 101.07733 -z 4
n -t 83.58462 -s 44 -S UP -v circle -c blue -x 377.26587 -y 252.14702 -z 4
n -t 85.189125 -s 22 -S UP -v circle -c blue -x 382.2071 -y 17.265274 -z 4
n -t 88.01851 -s 18 -S UP -v circle -c blue -x 471.41727 -y 279.43567 -z 4
n -t 88.03021 -s 1 -S UP -v circle -c red -x 255.25966 -y 454.363 -z 4
n -t 88.60601 -s 14 -S UP -v circle -c blue -x 240.86873 -y 369.80234 -z 4
n -t 89.23268 -s 7 -S UP -v circle -c red -x 409.0907 -y 381.57788 -z 4
n -t 89.59495 -s 31 -S UP -v circle -c blue -x 397.3053 -y 177.10233 -z 4
n -t 89.79212 -s 17 -S UP -v circle -c blue -x 15.10217 -y 315.19482 -z 4
n -t 90.81886 -s 20 -S UP -v circle -c blue -x 363.58215 -y 20.398346 -z 4
n -t 90.85679 -s 33 -S UP -v circle -c blue -x 175.17636 -y 476.023 -z 4
n -t 94.497444 -s 29 -S UP -v circle -c blue -x 318.9194 -y 117.00815 -z 4
n -t 94.844444 -s 42 -S UP -v circle -c blue -x 387.91873 -y 482.35324 -z 4
n -t 95.171295 -s 11 -S UP -v circle -c blue -x 442.92175 -y 318.13284 -z 4
n -t 97.96377 -s 3 -S UP -v circle -c red -x 297.18262 -y 334.32016 -z 4
n -t 98.77818 -s 50 -S UP -v circle -c blue -x 187.38428 -y 212.28046 -z 4
n -t 101.35802 -s 21 -S UP -v circle -c blue -x 448.51053 -y 283.2028 -z 4
n -t 101.85272 -s 4 -S UP -v circle -c red -x 20.612366 -y 340.80228 -z 4
n -t 101.95135 -s 32 -S UP -v circle -c blue -x 443.77432 -y 427.2862 -z 4
n -t 102.613686 -s 8 -S UP -v circle -c red -x 42.58078 -y 185.02695 -z 4
n -t 104.56885 -s 36 -S UP -v circle -c blue -x 50.506485 -y 381.6582 -z 4
n -t 105.25713 -s 24 -S UP -v circle -c blue -x 381.63522 -y 467.10052 -z 4
n -t 105.772484 -s 23 -S UP -v circle -c blue -x 268.49884 -y 450.64658 -z 4
n -t 106.16788 -s 44 -S UP -v circle -c blue -x 257.29318 -y 272.02594 -z 4
n -t 107.01103 -s 35 -S UP -v circle -c blue -x 279.73965 -y 277.65836 -z 4
n -t 107.86736 -s 22 -S UP -v circle -c blue -x 499.0032 -y 66.77888 -z 4
n -t 108.14948 -s 28 -S UP -v circle -c blue -x 395.77686 -y 442.86057 -z 4
n -t 108.58809 -s 12 -S UP -v circle -c blue -x 386.16766 -y 385.0844 -z 4
n -t 108.73217 -s 30 -S UP -v circle -c blue -x 460.29535 -y 245.40446 -z 4
n -t 108.755394 -s 19 -S UP -v circle -c blue -x 413.91058 -y 71.04584 -z 4
n -t 108.980576 -s 16 -S UP -v circle -c blue -x 168.73254 -y 396.1847 -z 4
n -t 109.81094 -s 38 -S UP -v circle -c blue -x 35.403828 -y 400.64194 -z 4
n -t 113.643875 -s 1 -S UP -v circle -c red -x 459.98083 -y 323.777 -z 4
n -t 114.28321 -s 16 -S UP -v circle -c blue -x 167.10089 -y 292.90985 -z 4
n -t 114.31777 -s 40 -S UP -v circle -c blue -x 371.7356 -y 494.87747 -z 4
n -t 116.791435 -s 31 -S UP -v circle -c blue -x 19.989655 -y 435.5053 -z 4
n -t 116.97177 -s 9 -S UP -v circle -c blue -x 430.94083 -y 303.9361 -z 4
n -t 117.92079 -s 16 -S UP -v circle -c blue -x 187.70767 -y 253.2859 -z 4
n -t 119.036545 -s 11 -S UP -v circle -c blue -x 244.27159 -y 89.29849 -z 4
n -t 120.0705 -s 44 -S UP -v circle -c blue -x 292.4445 -y 222.45636 -z 4
n -t 120.36048 -s 42 -S UP -v circle -c blue -x 55.46634 -y 227.88785 -z 4
n -t 120.39969 -s 33 -S UP -v circle -c blue -x 129.49265 -y 142.10962 -z 4
n -t 121.06261 -s 24 -S UP -v circle -c blue -x 480.2549 -y 228.8893 -z 4
n -t 121.34646 -s 17 -S UP -v circle -c blue -x 346.57523 -y 482.28015 -z 4
n -t 122.37101 -s 11 -S UP -v circle -c blue -x 226.56746 -y 37.575966 -z 4
n -t 123.961 -s 7 -S UP -v circle -c red -x 436.20914 -y 223.79832 -z 4
n -t 124.045944 -s 50 -S UP -v circle -c blue -x 23.644241 -y 193.89876 -z 4
n -t 124.09624 -s 3 -S UP -v circle -c red -x 191.96283 -y 185.44296 -z 4
n -t 124.9861 -s 16 -S UP -v circle -c blue -x 269.5926 -y 237.9964 -z 4
n -t 127.30284 -s 50 -S UP -v circle -c blue -x 20.873884 -y 244.38501 -z 4
n -t 127.567566 -s 14 -S UP -v circle -c blue -x 308.85663 -y 492.08298 -z 4
n -t 128.23355 -s 18 -S UP -v circle -c blue -x 105.456696 -y 480.66202 -z 4
n -t 128.7504 -s 36 -S UP -v circle -c blue -x 483.64783 -y 192.80579 -z 4
n -t 130.41174 -s 31 -S UP -v circle -c blue -x 82.27918 -y 180.4684 -z 4
n -t 133.11092 -s 34 -S UP -v circle -c blue -x 216.44223 -y 219.58104 -z 4
n -t 134.91406 -s 8 -S UP -v circle -c red -x 424.7028 -y 240.84015 -z 4
n -t 135.44518 -s 11 -S UP -v circle -c blue -x 205.03775 -y 203.71548 -z 4
n -t 136.28604 -s 11 -S UP -v circle -c blue -x 197.14629 -y 191.10367 -z 4
n -t 137.0771 -s 25 -S UP -v circle -c blue -x 304.47998 -y 417.36725 -z 4
n -t 137.47144 -s 46 -S UP -v circle -c blue -x 489.9287 -y 281.74493 -z 4
n -t 137.79153 -s 11 -S UP -v circle -c blue -x 213.70183 -y 209.2834 -z 4
n -t 137.9952 -s 42 -S UP -v circle -c blue -x 30.84894 -y 68.06833 -z 4
n -t 138.75038 -s 8 -S UP -v circle -c red -x 476.16284 -y 259.37836 -z 4
n -t 140.08334 -s 39 -S UP -v circle -c blue -x 206.97304 -y 492.89224 -z 4
n -t 140.17584 -s 50 -S UP -v circle -c blue -x 83.593796 -y 92.018036 -z 4
n -t 140.40143 -s 33 -S UP -v circle -c blue -x 303.24994 -y 38.385933 -z 4
n -t 141.54344 -s 17 -S UP -v circle -c blue -x 376.94128 -y 85.56506 -z 4
n -t 142.63416 -s 9 -S UP -v circle -c blue -x 98.51199 -y 286.08902 -z 4
n -t 143.54251 -s 12 -S UP -v circle -c blue -x 104.15848 -y 395.9974 -z 4
n -t 143.661 -s 2 -S UP -v circle -c red -x 56.237305 -y 19.033981 -z 4
n -t 144.85616 -s 9 -S UP -v circle -c blue -x 60.482403 -y 278.8536 -z 4
n -t 146.04231 -s 8 -S UP -v circle -c red -x 492.87332 -y 358.75375 -z 4
n -t 146.83566 -s 34 -S UP -v circle -c blue -x 75.788605 -y 124.0346 -z 4
n -t 147.9033 -s 7 -S UP -v circle -c red -x 25.335785 -y 66.628555 -z 4
n -t 148.45265 -s 44 -S UP -v circle -c blue -x 329.97287 -y 16.703735 -z 4
n -t 150.98561 -s 47 -S UP -v circle -c blue -x 426.6859 -y 233.63156 -z 4
n -t 151.00044 -s 23 -S UP -v circle -c blue -x 35.754425 -y 351.98145 -z 4
n -t 151.30498 -s 25 -S UP -v circle -c blue -x 468.84146 -y 201.87283 -z 4
n -t 151.49934 -s 38 -S UP -v circle -c blue -x 460.7802 -y 396.41156 -z 4
n -t 153.97824 -s 39 -S UP -v circle -c blue -x 157.47223 -y 325.17917 -z 4
n -t 154.01349 -s 1 -S UP -v circle -c red -x 204.64043 -y 99.10129 -z 4
n -t 156.29189 -s 14 -S UP -v circle -c blue -x 106.84546 -y 86.076996 -z 4
n -t 157.7245 -s 11 -S UP -v circle -c blue -x 191.8526 -y 130.90271 -z 4
n -t 158.76698 -s 9 -S UP -v circle -c blue -x 2.6369286 -y 408.4823 -z 4
n -t 160.369 -s 18 -S UP -v circle -c blue -x 5.4554443 -y 61.917847 -z 4
n -t 160.47661 -s 4 -S UP -v circle -c red -x 218.34305 -y 430.0597 -z 4
n -t 161.08328 -s 31 -S UP -v circle -c blue -x 481.75723 -y 320.95813 -z 4
n -t 161.90685 -s 2 -S UP -v circle -c red -x 24.766209 -y 221.7274 -z 4
n -t 163.49062 -s 17 -S UP -v circle -c blue -x 102.992676 -y 233.29341 -z 4
n -t 163.59872 -s 48 -S UP -v circle -c blue -x 169.66425 -y 305.71188 -z 4
n -t 166.35149 -s 32 -S UP -v circle -c blue -x 203.34105 -y 5.4243774 -z 4
n -t 166.35965 -s 50 -S UP -v circle -c blue -x 39.7307 -y 473.16098 -z 4
n -t 166.3695 -s 47 -S UP -v circle -c blue -x 277.34082 -y 209.27393 -z 4
n -t 167.7528 -s 46 -S UP -v circle -c blue -x 268.0661 -y 270.59573 -z 4
n -t 170.32068 -s 30 -S UP -v circle -c blue -x 142.75183 -y 128.20268 -z 4
n -t 170.46199 -s 6 -S UP -v circle -c red -x 52.349518 -y 24.23439 -z 4
n -t 171.30952 -s 25 -S UP -v circle -c blue -x 336.8348 -y 487.93115 -z 4
n -t 173.24875 -s 24 -S UP -v circle -c blue -x 422.04697 -y 223.8729 -z 4
n -t 174.8457 -s 18 -S UP -v circle -c blue -x 198.25594 -y 22.956886 -z 4
n -t 175.86581 -s 8 -S UP -v circle -c red -x 152.11551 -y 170.8142 -z 4
n -t 178.02217 -s 33 -S UP -v circle -c blue -x 437.11328 -y 151.17633 -z 4
n -t 183.3397 -s 23 -S UP -v circle -c blue -x 433.44324 -y 132.43257 -z 4
n -t 184.05415 -s 8 -S UP -v circle -c red -x 23.75586 -y 271.8495 -z 4
n -t 185.01878 -s 46 -S UP -v circle -c blue -x 105.66983 -y 60.017242 -z 4
n -t 185.2873 -s 17 -S UP -v circle -c blue -x 370.66467 -y 341.89508 -z 4
n -t 187.55777 -s 9 -S UP -v circle -c blue -x 388.58942 -y 283.2127 -z 4
n -t 188.29456 -s 38 -S UP -v circle -c blue -x 132.53052 -y 165.6863 -z 4
n -t 191.24017 -s 50 -S UP -v circle -c blue -x 337.6161 -y 240.9532 -z 4
n -t 191.24857 -s 32 -S UP -v circle -c blue -x 266.8742 -y 280.1628 -z 4
n -t 192.28265 -s 13 -S UP -v circle -c blue -x 287.1952 -y 315.538 -z 4
n -t 193.05962 -s 29 -S UP -v circle -c blue -x 182.18776 -y 190.4835 -z 4
n -t 195.22316 -s 11 -S UP -v circle -c blue -x 354.99252 -y 439.88562 -z 4
n -t 195.34192 -s 2 -S UP -v circle -c red -x 396.61002 -y 475.04074 -z 4
n -t 195.52165 -s 26 -S UP -v circle -c blue -x 394.43378 -y 383.7566 -z 4
n -t 195.55058 -s 25 -S UP -v circle -c blue -x 491.8431 -y 394.97748 -z 4
n -t 195.75894 -s 14 -S UP -v circle -c blue -x 302.85336 -y 484.39743 -z 4
n -t 197.81311 -s 50 -S UP -v circle -c blue -x 292.43204 -y 348.0063 -z 4
n -t 197.95459 -s 20 -S UP -v circle -c blue -x 64.33502 -y 248.85997 -z 4
n -t 198.55202 -s 50 -S UP -v circle -c blue -x 296.55807 -y 360.95395 -z 4
n -t 199.51639 -s 28 -S UP -v circle -c blue -x 369.36926 -y 261.54233 -z 4
n -t 199.63812 -s 38 -S UP -v circle -c blue -x 233.5473 -y 75.24952 -z 4
n -t 201.12863 -s 5 -S UP -v circle -c red -x 214.99396 -y 107.3144 -z 4
n -t 201.25775 -s 40 -S UP -v circle -c blue -x 462.40137 -y 2.8363647 -z 4
n -t 201.91289 -s 25 -S UP -v circle -c blue -x 399.42712 -y 313.41736 -z 4
n -t 205.02419 -s 50 -S UP -v circle -c blue -x 217.4186 -y 352.76462 -z 4
n -t 205.54124 -s 23 -S UP -v circle -c blue -x 160.7619 -y 275.15887 -z 4
n -t 206.88377 -s 17 -S UP -v circle -c blue -x 215.97252 -y 70.51538 -z 4
n -t 207.53444 -s 35 -S UP -v circle -c blue -x 289.76102 -y 150.13948 -z 4
n -t 208.53664 -s 25 -S UP -v circle -c blue -x 484.53427 -y 349.4165 -z 4
n -t 208.6517 -s 26 -S UP -v circle -c blue -x 219.18044 -y 399.81458 -z 4
n -t 209.29085 -s 44 -S UP -v circle -c blue -x 94.464584 -y 397.37015 -z 4
n -t 209.56367 -s 18 -S UP -v circle -c blue -x 440.00262 -y 342.5659 -z 4
n -t 213.54358 -s 29 -S UP -v circle -c blue -x 396.92117 -y 113.528915 -z 4
n -t 213.84515 -s 32 -S UP -v circle -c blue -x 104.35959 -y 373.6161 -z 4
n -t 214.303 -s 48 -S UP -v circle -c blue -x 92.44235 -y 145.46606 -z 4
n -t 217.29205 -s 2 -S UP -v circle -c red -x 71.75342 -y 242.30226 -z 4
n -t 217.47473 -s 14 -S UP -v circle -c blue -x 63.726715 -y 224.65747 -z 4
n -t 218.48897 -s 23 -S UP -v circle -c blue -x 20.059982 -y 309.37762 -z 4
n -t 219.65727 -s 25 -S UP -v circle -c blue -x 332.9677 -y 415.17938 -z 4
n -t 220.11755 -s 13 -S UP -v circle -c blue -x 17.942352 -y 472.4216 -z 4
n -t 222.98174 -s 20 -S UP -v circle -c blue -x 490.0738 -y 7.88118 -z 4
n -t 224.06706 -s 50 -S UP -v circle -c blue -x 363.82178 -y 317.364 -z 4
n -t 224.07423 -s 4 -S UP -v circle -c red -x 88.03195 -y 437.63547 -z 4
n -t 224.45093 -s 26 -S UP -v circle -c blue -x 288.0108 -y 217.53404 -z 4
n -t 226.73805 -s 33 -S UP -v circle -c blue -x 149.33466 -y 1.0927582 -z 4
n -t 226.99702 -s 31 -S UP -v circle -c blue -x 43.50824 -y 413.21185 -z 4
n -t 227.15825 -s 12 -S UP -v circle -c blue -x 293.71594 -y 38.664246 -z 4
n -t 229.50589 -s 47 -S UP -v circle -c blue -x 315.97842 -y 30.368256 -z 4
n -t 234.37901 -s 1 -S UP -v circle -c red -x 97.11308 -y 457.67468 -z 4
n -t 235.69363 -s 29 -S UP -v circle -c blue -x 344.914 -y 353.4487 -z 4
n -t 238.3494 -s 32 -S UP -v circle -c blue -x 203.4559 -y 119.085724 -z 4
n -t 239.22923 -s 8 -S UP -v circle -c red -x 459.7498 -y 118.88013 -z 4
n -t 239.48502 -s 33 -S UP -v circle -c blue -x 375.82062 -y 43.31633 -z 4
n -t 240.45041 -s 4 -S UP -v circle -c red -x 300.44522 -y 374.3063 -z 4
n -t 240.90851 -s 11 -S UP -v circle -c blue -x 325.22446 -y 268.74243 -z 4
n -t 242.40579 -s 8 -S UP -v circle -c red -x 487.8357 -y 175.01437 -z 4
n -t 242.79271 -s 5 -S UP -v circle -c red -x 402.72235 -y 203.97282 -z 4
n -t 243.36473 -s 36 -S UP -v circle -c blue -x 318.49506 -y 474.71622 -z 4
n -t 247.23035 -s 23 -S UP -v circle -c blue -x 290.6571 -y 42.9664 -z 4
n -t 249.46992 -s 47 -S UP -v circle -c blue -x 263.70044 -y 405.9434 -z 4
n -t 250.45877 -s 26 -S UP -v circle -c blue -x 141.89438 -y 437.04492 -z 4
n -t 251.00664 -s 12 -S UP -v circle -c blue -x 177.61647 -y 401.0761 -z 4
n -t 252.26369 -s 10 -S UP -v circle -c blue -x 289.17783 -y 190.56583 -z 4
n -t 252.73654 -s 28 -S UP -v circle -c blue -x 400.2142 -y 464.73087 -z 4
n -t 254.82536 -s 48 -S UP -v circle -c blue -x 493.30444 -y 150.44579 -z 4
n -t 256.64355 -s 36 -S UP -v circle -c blue -x 180.9714 -y 305.4867 -z 4
n -t 256.65363 -s 1 -S UP -v circle -c red -x 400.1831 -y 269.10593 -z 4
n -t 256.8143 -s 33 -S UP -v circle -c blue -x 281.32486 -y 207.9682 -z 4
n -t 256.816 -s 11 -S UP -v circle -c blue -x 352.45798 -y 408.14105 -z 4
n -t 258.13556 -s 20 -S UP -v circle -c blue -x 56.494812 -y 57.228592 -z 4
n -t 259.3864 -s 1 -S UP -v circle -c red -x 440.07635 -y 276.8733 -z 4
n -t 259.8004 -s 9 -S UP -v circle -c blue -x 198.58731 -y 184.79286 -z 4
n -t 262.222 -s 16 -S UP -v circle -c blue -x 362.1595 -y 492.80865 -z 4
n -t 262.27563 -s 24 -S UP -v circle -c blue -x 316.68356 -y 459.97745 -z 4
n -t 263.4754 -s 42 -S UP -v circle -c blue -x 419.7076 -y 499.88388 -z 4
n -t 266.1759 -s 24 -S UP -v circle -c blue -x 359.9552 -y 418.5532 -z 4
n -t 266.3352 -s 49 -S UP -v circle -c blue -x 432.2075 -y 32.49051 -z 4
n -t 266.53354 -s 12 -S UP -v circle -c blue -x 349.7521 -y 157.08922 -z 4
n -t 268.09366 -s 41 -S UP -v circle -c blue -x 104.45752 -y 471.27362 -z 4
n -t 269.0489 -s 50 -S UP -v circle -c blue -x 228.52351 -y 19.188202 -z 4
n -t 269.63904 -s 36 -S UP -v circle -c blue -x 1.1933899 -y 490.88287 -z 4
n -t 271.02716 -s 5 -S UP -v circle -c red -x 14.0824585 -y 245.86098 -z 4
n -t 273.40665 -s 12 -S UP -v circle -c blue -x 442.63962 -y 194.80653 -z 4
n -t 274.767 -s 10 -S UP -v circle -c blue -x 142.37825 -y 482.6605 -z 4
n -t 275.41132 -s 16 -S UP -v circle -c blue -x 112.85547 -y 444.74103 -z 4
n -t 275.83972 -s 40 -S UP -v circle -c blue -x 269.6997 -y 472.99457 -z 4
n -t 276.36523 -s 46 -S UP -v circle -c blue -x 337.95206 -y 473.31705 -z 4
n -t 279.98248 -s 20 -S UP -v circle -c blue -x 153.83049 -y 238.67812 -z 4
n -t 280.49417 -s 11 -S UP -v circle -c blue -x 171.63344 -y 221.36041 -z 4
n -t 280.9221 -s 14 -S UP -v circle -c blue -x 307.7089 -y 305.46506 -z 4
n -t 280.95224 -s 26 -S UP -v circle -c blue -x 416.08762 -y 491.63376 -z 4
n -t 281.92627 -s 25 -S UP -v circle -c blue -x 339.02087 -y 161.83817 -z 4
n -t 284.33682 -s 47 -S UP -v circle -c blue -x 273.24368 -y 28.53006 -z 4
n -t 284.44464 -s 49 -S UP -v circle -c blue -x 333.97644 -y 230.47084 -z 4
n -t 284.6248 -s 9 -S UP -v circle -c blue -x 11.807892 -y 392.72302 -z 4
n -t 287.09372 -s 25 -S UP -v circle -c blue -x 315.09274 -y 236.20209 -z 4
n -t 288.36194 -s 12 -S UP -v circle -c blue -x 401.30536 -y 343.41922 -z 4
n -t 292.14975 -s 36 -S UP -v circle -c blue -x 22.3322 -y 232.33008 -z 4
n -t 294.61755 -s 24 -S UP -v circle -c blue -x 11.048492 -y 190.60191 -z 4
n -t 294.81174 -s 6 -S UP -v circle -c red -x 377.81073 -y 107.59722 -z 4
n -t 294.91287 -s 40 -S UP -v circle -c blue -x 82.89058 -y 217.79497 -z 4
n -t 294.98602 -s 46 -S UP -v circle -c blue -x 440.21066 -y 259.263 -z 4
n -t 295.2587 -s 23 -S UP -v circle -c blue -x 473.35318 -y 419.15973 -z 4
n -t 295.73428 -s 7 -S UP -v circle -c red -x 343.47934 -y 187.15001 -z 4
n -t 296.68835 -s 49 -S UP -v circle -c blue -x 473.09885 -y 181.39531 -z 4
n -t 298.2 -s 1 -S UP -v circle -c red -x 335.60034 -y 32.808655 -z 4
n -t 298.94424 -s 16 -S UP -v circle -c blue -x 409.2887 -y 139.09375 -z 4
n -t 301.80997 -s 11 -S UP -v circle -c blue -x 102.110115 -y 288.88766 -z 4
n -t 302.08276 -s 9 -S UP -v circle -c blue -x 208.7505 -y 112.194214 -z 4
n -t 302.40277 -s 36 -S UP -v circle -c blue -x 0.34680176 -y 63.19754 -z 4
n -t 302.43036 -s 20 -S UP -v circle -c blue -x 426.20178 -y 7.9217987 -z 4
n -t 303.07764 -s 42 -S UP -v circle -c blue -x 224.82544 -y 297.46704 -z 4
n -t 303.31693 -s 13 -S UP -v circle -c blue -x 414.24945 -y 255.40973 -z 4
n -t 304.77692 -s 50 -S UP -v circle -c blue -x 212.16885 -y 480.71344 -z 4
n -t 306.5011 -s 47 -S UP -v circle -c blue -x 368.2853 -y 263.90527 -z 4
n -t 308.31696 -s 46 -S UP -v circle -c blue -x 374.16916 -y 417.40335 -z 4
n -t 309.26697 -s 12 -S UP -v circle -c blue -x 75.74826 -y 119.592224 -z 4
n -t 309.88153 -s 25 -S UP -v circle -c blue -x 417.4699 -y 340.1998 -z 4
n -t 314.08597 -s 14 -S UP -v circle -c blue -x 151.56703 -y 16.600098 -z 4
n -t 315.66928 -s 42 -S UP -v circle -c blue -x 404.416 -y 289.88953 -z 4
n -t 320.26566 -s 47 -S UP -v circle -c blue -x 156.0678 -y 344.85883 -z 4
n -t 321.1341 -s 6 -S UP -v circle -c red -x 61.374054 -y 247.76062 -z 4
n -t 324.48682 -s 50 -S UP -v circle -c blue -x 55.716873 -y 358.36542 -z 4
n -t 324.5845 -s 44 -S UP -v circle -c blue -x 334.26578 -y 61.067596 -z 4
n -t 325.33405 -s 32 -S UP -v circle -c blue -x 486.54187 -y 34.25534 -z 4
n -t 326.50266 -s 26 -S UP -v circle -c blue -x 295.81366 -y 176.54453 -z 4
n -t 327.25323 -s 44 -S UP -v circle -c blue -x 366.6331 -y 102.55709 -z 4
n -t 328.3716 -s 12 -S UP -v circle -c blue -x 38.615707 -y 5.381836 -z 4
n -t 328.81418 -s 14 -S UP -v circle -c blue -x 339.34683 -y 33.18785 -z 4
n -t 328.82495 -s 38 -S UP -v circle -c blue -x 24.555328 -y 288.2042 -z 4
n -t 330.6374 -s 28 -S UP -v circle -c blue -x 27.476746 -y 484.01068 -z 4
n -t 333.23865 -s 49 -S UP -v circle -c blue -x 162.27213 -y 167.22534 -z 4
n -t 333.6542 -s 46 -S UP -v circle -c blue -x 238.36847 -y 414.4252 -z 4
n -t 334.4006 -s 36 -S UP -v circle -c blue -x 489.01086 -y 114.134796 -z 4
n -t 336.70523 -s 46 -S UP -v circle -c blue -x 270.61484 -y 417.2571 -z 4