# Trace file generated by Jist/Swans Version 1.0.6. at Fri Jul 26 18:33:36 BRT 2013
V -t * -v 1.0a5 -a 0
W -t * -x 410 -y 410
A -t * -n 1 -p 0 -o 0xffffffff -c 31 -a 1
A -t * -h 1 -m 2147483647 -s 0
n -t 0.0 -s 1 -S UP -v circle -c red -x 345.86703 -y 4.7658086 -z 4
n -t 0.0 -s 2 -S UP -v circle -c red -x 468.07016 -y 212.44475 -z 4
n -t 0.0 -s 3 -S UP -v circle -c red -x 18.716604 -y 101.66693 -z 4
n -t 0.0 -s 4 -S UP -v circle -c red -x 214.69528 -y 336.1489 -z 4
n -t 0.0 -s 5 -S UP -v circle -c red -x 475.76456 -y 455.29636 -z 4
n -t 0.0 -s 6 -S UP -v circle -c red -x 391.98267 -y 135.59445 -z 4
n -t 0.0 -s 7 -S UP -v circle -c red -x 185.92418 -y 416.33066 -z 4
n -t 0.0 -s 8 -S UP -v circle -c red -x 316.19977 -y 409.18478 -z 4
n -t 0.0 -s 9 -S UP -v circle -c blue -x 297.83948 -y 258.18423 -z 4
n -t 0.0 -s 10 -S UP -v circle -c blue -x 385.94 -y 13.812184 -z 4
n -t 0.0 -s 11 -S UP -v circle -c blue -x 107.3347 -y 465.52582 -z 4
n -t 0.0 -s 12 -S UP -v circle -c blue -x 268.42645 -y 416.28992 -z 4
n -t 0.0 -s 13 -S UP -v circle -c blue -x 480.93906 -y 104.420815 -z 4
n -t 0.0 -s 14 -S UP -v circle -c blue -x 196.66562 -y 12.384385 -z 4
n -t 0.0 -s 15 -S UP -v circle -c blue -x 243.0818 -y 456.2655 -z 4
n -t 0.0 -s 16 -S UP -v circle -c blue -x 371.15237 -y 435.14978 -z 4
n -t 0.0 -s 17 -S UP -v circle -c blue -x 487.8492 -y 1.9237697 -z 4
n -t 0.0 -s 18 -S UP -v circle -c blue -x 490.3451 -y 388.1959 -z 4
n -t 0.0 -s 19 -S UP -v circle -c blue -x 110.62288 -y 462.208 -z 4
n -t 0.0 -s 20 -S UP -v circle -c blue -x 186.84862 -y 119.958374 -z 4
n -t 0.0 -s 21 -S UP -v circle -c blue -x 348.3139 -y 469.75116 -z 4
n -t 0.0 -s 22 -S UP -v circle -c blue -x 43.522774 -y 289.58765 -z 4
n -t 0.0 -s 23 -S UP -v circle -c blue -x 367.41296 -y 13.152689 -z 4
n -t 0.0 -s 24 -S UP -v circle -c blue -x 460.75064 -y 427.88583 -z 4
n -t 0.0 -s 25 -S UP -v circle -c blue -x 490.14923 -y 43.86443 -z 4
n -t 0.0 -s 26 -S UP -v circle -c blue -x 255.84456 -y 333.5262 -z 4
n -t 0.0 -s 27 -S UP -v circle -c blue -x 114.46169 -y 220.48863 -z 4
n -t 0.0 -s 28 -S UP -v circle -c blue -x 193.83737 -y 157.86987 -z 4
n -t 0.0 -s 29 -S UP -v circle -c blue -x 72.31504 -y 123.93561 -z 4
n -t 0.0 -s 30 -S UP -v circle -c blue -x 379.31583 -y 64.89771 -z 4
n -t 0.0 -s 31 -S UP -v circle -c blue -x 212.5366 -y 264.23297 -z 4
n -t 0.0 -s 32 -S UP -v circle -c blue -x 417.9287 -y 126.512856 -z 4
n -t 0.0 -s 33 -S UP -v circle -c blue -x 463.51364 -y 208.75958 -z 4
n -t 0.0 -s 34 -S UP -v circle -c blue -x 77.98129 -y 49.711407 -z 4
n -t 0.0 -s 35 -S UP -v circle -c blue -x 172.79509 -y 249.42574 -z 4
n -t 0.0 -s 36 -S UP -v circle -c blue -x 324.16174 -y 179.40431 -z 4
n -t 0.0 -s 37 -S UP -v circle -c blue -x 475.21805 -y 39.025425 -z 4
n -t 0.0 -s 38 -S UP -v circle -c blue -x 41.797043 -y 79.0959 -z 4
n -t 0.0 -s 39 -S UP -v circle -c blue -x 469.27307 -y 324.90225 -z 4
n -t 0.0 -s 40 -S UP -v circle -c blue -x 138.78212 -y 437.8468 -z 4
n -t 0.0 -s 41 -S UP -v circle -c blue -x 188.98857 -y 90.5157 -z 4
n -t 0.0 -s 42 -S UP -v circle -c blue -x 378.95297 -y 264.1938 -z 4
n -t 0.0 -s 43 -S UP -v circle -c blue -x 421.92685 -y 45.842022 -z 4
n -t 0.0 -s 44 -S UP -v circle -c blue -x 23.486912 -y 210.749 -z 4
n -t 0.0 -s 45 -S UP -v circle -c blue -x 214.51855 -y 238.24477 -z 4
n -t 0.0 -s 46 -S UP -v circle -c blue -x 402.01736 -y 183.40736 -z 4
n -t 0.0 -s 47 -S UP -v circle -c blue -x 115.819756 -y 252.99794 -z 4
n -t 0.0 -s 48 -S UP -v circle -c blue -x 301.4825 -y 359.36035 -z 4
n -t 0.0 -s 49 -S UP -v circle -c blue -x 477.05804 -y 242.61316 -z 4
n -t 0.0 -s 50 -S UP -v circle -c blue -x 205.01358 -y 202.92229 -z 4
n -t 0.0 -s 1 -S UP -v circle -c red -x 345.86703 -y 4.7658086 -z 4
n -t 0.0 -s 3 -S UP -v circle -c red -x 18.716604 -y 101.66693 -z 4
n -t 0.0 -s 7 -S UP -v circle -c red -x 185.92418 -y 416.33066 -z 4
n -t 0.0 -s 15 -S UP -v circle -c blue -x 243.0818 -y 456.2655 -z 4
n -t 0.0 -s 31 -S UP -v circle -c blue -x 212.5366 -y 264.23297 -z 4
n -t 0.0 -s 32 -S UP -v circle -c blue -x 417.9287 -y 126.512856 -z 4
n -t 0.0 -s 16 -S UP -v circle -c blue -x 371.15237 -y 435.14978 -z 4
n -t 0.0 -s 33 -S UP -v circle -c blue -x 463.51364 -y 208.75958 -z 4
n -t 0.0 -s 34 -S UP -v circle -c blue -x 77.98129 -y 49.711407 -z 4
n -t 0.0 -s 8 -S UP -v circle -c red -x 316.19977 -y 409.18478 -z 4
n -t 0.0 -s 17 -S UP -v circle -c blue -x 487.8492 -y 1.9237697 -z 4
n -t 0.0 -s 35 -S UP -v circle -c blue -x 172.79509 -y 249.42574 -z 4
n -t 0.0 -s 36 -S UP -v circle -c blue -x 324.16174 -y 179.40431 -z 4
n -t 0.0 -s 18 -S UP -v circle -c blue -x 490.3451 -y 388.1959 -z 4
n -t 0.0 -s 37 -S UP -v circle -c blue -x 475.21805 -y 39.025425 -z 4
n -t 0.0 -s 38 -S UP -v circle -c blue -x 41.797043 -y 79.0959 -z 4
n -t 0.0 -s 4 -S UP -v circle -c red -x 214.69528 -y 336.1489 -z 4
n -t 0.0 -s 9 -S UP -v circle -c blue -x 297.83948 -y 258.18423 -z 4
n -t 0.0 -s 19 -S UP -v circle -c blue -x 110.62288 -y 462.208 -z 4
n -t 0.0 -s 39 -S UP -v circle -c blue -x 469.27307 -y 324.90225 -z 4
n -t 0.0 -s 40 -S UP -v circle -c blue -x 138.78212 -y 437.8468 -z 4
n -t 0.0 -s 20 -S UP -v circle -c blue -x 186.84862 -y 119.958374 -z 4
n -t 0.0 -s 41 -S UP -v circle -c blue -x 188.98857 -y 90.5157 -z 4
n -t 0.0 -s 42 -S UP -v circle -c blue -x 378.95297 -y 264.1938 -z 4
n -t 0.0 -s 10 -S UP -v circle -c blue -x 385.94 -y 13.812184 -z 4
n -t 0.0 -s 21 -S UP -v circle -c blue -x 348.3139 -y 469.75116 -z 4
n -t 0.0 -s 43 -S UP -v circle -c blue -x 421.92685 -y 45.842022 -z 4
n -t 0.0 -s 44 -S UP -v circle -c blue -x 23.486912 -y 210.749 -z 4
n -t 0.0 -s 22 -S UP -v circle -c blue -x 43.522774 -y 289.58765 -z 4
n -t 0.0 -s 45 -S UP -v circle -c blue -x 214.51855 -y 238.24477 -z 4
n -t 0.0 -s 46 -S UP -v circle -c blue -x 402.01736 -y 183.40736 -z 4
n -t 0.0 -s 2 -S UP -v circle -c red -x 468.07016 -y 212.44475 -z 4
n -t 0.0 -s 5 -S UP -v circle -c red -x 475.76456 -y 455.29636 -z 4
n -t 0.0 -s 11 -S UP -v circle -c blue -x 107.3347 -y 465.52582 -z 4
n -t 0.0 -s 23 -S UP -v circle -c blue -x 367.41296 -y 13.152689 -z 4
n -t 0.0 -s 47 -S UP -v circle -c blue -x 115.819756 -y 252.99794 -z 4
n -t 0.0 -s 48 -S UP -v circle -c blue -x 301.4825 -y 359.36035 -z 4
n -t 0.0 -s 24 -S UP -v circle -c blue -x 460.75064 -y 427.88583 -z 4
n -t 0.0 -s 49 -S UP -v circle -c blue -x 477.05804 -y 242.61316 -z 4
n -t 0.0 -s 50 -S UP -v circle -c blue -x 205.01358 -y 202.92229 -z 4
n -t 0.0 -s 12 -S UP -v circle -c blue -x 268.42645 -y 416.28992 -z 4
n -t 0.0 -s 25 -S UP -v circle -c blue -x 490.14923 -y 43.86443 -z 4
n -t 0.0 -s 26 -S UP -v circle -c blue -x 255.84456 -y 333.5262 -z 4
n -t 0.0 -s 6 -S UP -v circle -c red -x 391.98267 -y 135.59445 -z 4
n -t 0.0 -s 13 -S UP -v circle -c blue -x 480.93906 -y 104.420815 -z 4
n -t 0.0 -s 27 -S UP -v circle -c blue -x 114.46169 -y 220.48863 -z 4
n -t 0.0 -s 28 -S UP -v circle -c blue -x 193.83737 -y 157.86987 -z 4
n -t 0.0 -s 14 -S UP -v circle -c blue -x 196.66562 -y 12.384385 -z 4
n -t 0.0 -s 29 -S UP -v circle -c blue -x 72.31504 -y 123.93561 -z 4
n -t 0.0 -s 30 -S UP -v circle -c blue -x 379.31583 -y 64.89771 -z 4
n -t 4.643219 -s 3 -S UP -v circle -c red -x 88.556076 -y 160.69469 -z 4
n -t 5.0566936 -s 2 -S UP -v circle -c red -x 375.01382 -y 180.6314 -z 4
n -t 6.13521 -s 42 -S UP -v circle -c blue -x 299.24973 -y 198.47969 -z 4
n -t 7.2624054 -s 19 -S UP -v circle -c blue -x 177.37973 -y 352.95892 -z 4
n -t 10.313188 -s 29 -S UP -v circle -c blue -x 18.922611 -y 298.59476 -z 4
n -t 11.994037 -s 26 -S UP -v circle -c blue -x 108.736206 -y 341.85574 -z 4
n -t 12.192576 -s 16 -S UP -v circle -c blue -x 170.02748 -y 305.12766 -z 4
n -t 12.474147 -s 44 -S UP -v circle -c blue -x 172.54773 -y 211.07896 -z 4
n -t 14.401757 -s 20 -S UP -v circle -c blue -x 53.31279 -y 373.04584 -z 4
n -t 14.610266 -s 41 -S UP -v circle -c blue -x 335.3975 -y 118.54774 -z 4
n -t 15.015057 -s 28 -S UP -v circle -c blue -x 51.448563 -y 1.6344757 -z 4
n -t 15.801858 -s 1 -S UP -v circle -c red -x 154.56458 -y 236.13834 -z 4
n -t 16.479336 -s 11 -S UP -v circle -c blue -x 170.55548 -y 253.69035 -z 4
n -t 18.280819 -s 47 -S UP -v circle -c blue -x 39.25988 -y 5.3975983 -z 4
n -t 18.784866 -s 35 -S UP -v circle -c blue -x 371.1991 -y 365.84955 -z 4
n -t 18.997807 -s 7 -S UP -v circle -c red -x 100.902885 -y 129.03171 -z 4
n -t 20.76998 -s 5 -S UP -v circle -c red -x 286.63962 -y 137.6614 -z 4
n -t 21.506622 -s 48 -S UP -v circle -c blue -x 310.8055 -y 16.498474 -z 4
n -t 21.697002 -s 6 -S UP -v circle -c red -x 113.42981 -y 216.33942 -z 4
n -t 21.81189 -s 17 -S UP -v circle -c blue -x 279.83734 -y 196.3209 -z 4
n -t 22.163412 -s 49 -S UP -v circle -c blue -x 252.5561 -y 372.74744 -z 4
n -t 22.232788 -s 33 -S UP -v circle -c blue -x 242.19855 -y 178.92738 -z 4
n -t 22.346838 -s 37 -S UP -v circle -c blue -x 469.5491 -y 465.96497 -z 4
n -t 23.109808 -s 27 -S UP -v circle -c blue -x 166.00722 -y 410.73938 -z 4
n -t 23.340696 -s 25 -S UP -v circle -c blue -x 484.89496 -y 227.86255 -z 4
n -t 23.601034 -s 4 -S UP -v circle -c red -x 399.79553 -y 356.44516 -z 4
n -t 24.161856 -s 11 -S UP -v circle -c blue -x 147.73988 -y 162.40395 -z 4
n -t 24.243769 -s 29 -S UP -v circle -c blue -x 246.39267 -y 165.1911 -z 4
n -t 25.0463 -s 3 -S UP -v circle -c red -x 368.93677 -y 452.35107 -z 4
n -t 25.470448 -s 35 -S UP -v circle -c blue -x 358.20346 -y 246.57199 -z 4
n -t 25.51515 -s 50 -S UP -v circle -c blue -x 16.791367 -y 54.05867 -z 4
n -t 25.607573 -s 42 -S UP -v circle -c blue -x 318.67908 -y 329.17892 -z 4
n -t 27.113914 -s 44 -S UP -v circle -c blue -x 89.34575 -y 24.38736 -z 4
n -t 28.578115 -s 26 -S UP -v circle -c blue -x 79.05771 -y 466.048 -z 4
n -t 29.205015 -s 2 -S UP -v circle -c red -x 326.97034 -y 440.9356 -z 4
n -t 29.209063 -s 39 -S UP -v circle -c blue -x 198.75027 -y 33.466278 -z 4
n -t 29.377583 -s 15 -S UP -v circle -c blue -x 146.98767 -y 304.9489 -z 4
n -t 29.460562 -s 19 -S UP -v circle -c blue -x 228.91788 -y 162.61479 -z 4
n -t 31.706944 -s 1 -S UP -v circle -c red -x 376.00443 -y 409.9451 -z 4
n -t 32.0198 -s 41 -S UP -v circle -c blue -x 30.4263 -y 129.52792 -z 4
n -t 32.884373 -s 13 -S UP -v circle -c blue -x 27.442657 -y 465.7462 -z 4
n -t 34.011265 -s 3 -S UP -v circle -c red -x 301.48538 -y 440.7803 -z 4
n -t 34.51806 -s 12 -S UP -v circle -c blue -x 320.11624 -y 78.137024 -z 4
n -t 34.57654 -s 22 -S UP -v circle -c blue -x 457.57068 -y 59.92694 -z 4
n -t 35.54868 -s 49 -S UP -v circle -c blue -x 286.58362 -y 386.47833 -z 4
n -t 36.017143 -s 17 -S UP -v circle -c blue -x 107.48421 -y 360.25266 -z 4
n -t 36.536457 -s 30 -S UP -v circle -c blue -x 387.75922 -y 482.23236 -z 4
n -t 37.859604 -s 11 -S UP -v circle -c blue -x 290.1134 -y 178.4881 -z 4
n -t 37.98656 -s 45 -S UP -v circle -c blue -x 377.04108 -y 306.74948 -z 4
n -t 40.645515 -s 1 -S UP -v circle -c red -x 206.84135 -y 463.9234 -z 4
n -t 41.6258 -s 40 -S UP -v circle -c blue -x 436.84662 -y 98.368164 -z 4
n -t 42.91041 -s 10 -S UP -v circle -c blue -x 463.829 -y 331.5639 -z 4
n -t 43.166954 -s 31 -S UP -v circle -c blue -x 227.4286 -y 175.8083 -z 4
n -t 43.511795 -s 35 -S UP -v circle -c blue -x 100.438995 -y 180.3514 -z 4
n -t 44.557182 -s 49 -S UP -v circle -c blue -x 301.99213 -y 488.95157 -z 4
n -t 44.600376 -s 28 -S UP -v circle -c blue -x 376.96967 -y 123.06737 -z 4
n -t 45.785606 -s 37 -S UP -v circle -c blue -x 315.176 -y 98.22815 -z 4
n -t 46.029995 -s 39 -S UP -v circle -c blue -x 351.05426 -y 249.51381 -z 4
n -t 48.007263 -s 41 -S UP -v circle -c blue -x 63.787415 -y 19.284203 -z 4
n -t 48.859653 -s 48 -S UP -v circle -c blue -x 325.76993 -y 440.74292 -z 4
n -t 49.192535 -s 27 -S UP -v circle -c blue -x 64.25695 -y 245.93977 -z 4
n -t 49.37193 -s 2 -S UP -v circle -c red -x 52.000366 -y 416.78836 -z 4
n -t 51.33394 -s 28 -S UP -v circle -c blue -x 421.2657 -y 223.09607 -z 4
n -t 51.876152 -s 33 -S UP -v circle -c blue -x 494.66605 -y 342.0925 -z 4
n -t 51.900208 -s 46 -S UP -v circle -c blue -x 320.66647 -y 287.98657 -z 4
n -t 53.344185 -s 50 -S UP -v circle -c blue -x 446.9154 -y 219.51253 -z 4
n -t 53.445045 -s 24 -S UP -v circle -c blue -x 305.7706 -y 244.6626 -z 4
n -t 53.52537 -s 17 -S UP -v circle -c blue -x 190.37381 -y 157.27542 -z 4
n -t 54.17508 -s 23 -S UP -v circle -c blue -x 18.639069 -y 349.68372 -z 4
n -t 54.660107 -s 16 -S UP -v circle -c blue -x 358.28403 -y 199.87752 -z 4
n -t 55.01128 -s 4 -S UP -v circle -c red -x 33.27173 -y 171.91386 -z 4
n -t 55.024437 -s 11 -S UP -v circle -c blue -x 165.90482 -y 159.79207 -z 4
n -t 55.564354 -s 13 -S UP -v circle -c blue -x 149.29213 -y 55.09085 -z 4
n -t 56.232697 -s 40 -S UP -v circle -c blue -x 291.40936 -y 153.90529 -z 4
n -t 56.32403 -s 15 -S UP -v circle -c blue -x 445.6123 -y 27.662994 -z 4
n -t 57.4223 -s 32 -S UP -v circle -c blue -x 466.50647 -y 168.06306 -z 4
n -t 58.16852 -s 42 -S UP -v circle -c blue -x 7.878418 -y 446.98337 -z 4
n -t 58.58684 -s 17 -S UP -v circle -c blue -x 275.18518 -y 148.59149 -z 4
n -t 59.64159 -s 41 -S UP -v circle -c blue -x 219.01074 -y 151.15054 -z 4
n -t 60.69505 -s 27 -S UP -v circle -c blue -x 32.44786 -y 202.20537 -z 4
n -t 60.71984 -s 28 -S UP -v circle -c blue -x 311.6259 -y 369.61288 -z 4
n -t 61.548298 -s 25 -S UP -v circle -c blue -x 110.34497 -y 376.11093 -z 4
n -t 63.848297 -s 8 -S UP -v circle -c red -x 495.15723 -y 49.635284 -z 4
n -t 64.41052 -s 46 -S UP -v circle -c blue -x 314.1133 -y 128.63437 -z 4
n -t 66.02741 -s 16 -S UP -v circle -c blue -x 382.25256 -y 403.31332 -z 4
n -t 67.19394 -s 41 -S UP -v circle -c blue -x 198.19604 -y 40.895462 -z 4
n -t 68.660164 -s 27 -S UP -v circle -c blue -x 124.48217 -y 76.75838 -z 4
n -t 69.37935 -s 44 -S UP -v circle -c blue -x 126.49138 -y 429.54236 -z 4
n -t 69.42477 -s 24 -S UP -v circle -c blue -x 411.9147 -y 175.79063 -z 4
n -t 69.97139 -s 45 -S UP -v circle -c blue -x 94.16089 -y 20.91745 -z 4
n -t 70.715225 -s 33 -S UP -v circle -c blue -x 367.2912 -y 33.367218 -z 4
n -t 72.82983 -s 4 -S UP -v circle -c red -x 300.77902 -y 67.0114 -z 4
n -t 73.208626 -s 32 -S UP -v circle -c blue -x 460.08713 -y 418.60132 -z 4
n -t 73.58663 -s 33 -S UP -v circle -c blue -x 417.38934 -y 16.267319 -z 4
n -t 74.67227 -s 12 -S UP -v circle -c blue -x 213.53505 -y 432.57468 -z 4
n -t 75.023186 -s 11 -S UP -v circle -c blue -x 320.19867 -y 13.475388 -z 4
n -t 78.8343 -s 28 -S UP -v circle -c blue -x 418.974 -y 31.339874 -z 4
n -t 80.90848 -s 13 -S UP -v circle -c blue -x 442.67914 -y 394.4237 -z 4
n -t 81.21676 -s 1 -S UP -v circle -c red -x 394.06564 -y 110.58588 -z 4
n -t 81.298515 -s 8 -S UP -v circle -c red -x 471.34174 -y 189.27286 -z 4
n -t 82.59518 -s 31 -S UP -v circle -c blue -x 130.99158 -y 297.27908 -z 4
n -t 82.99667 -s 24 -S UP -v circle -c blue -x 419.7677 -y 389.4944 -z 4
n -t 87.81449 -s 10 -S UP -v circle -c blue -x 146.51291 -y 473.91425 -z 4
n -t 88.20425 -s 1 -S UP -v circle -c red -x 357.4987 -y 142.00288 -z 4
n -t 90.48622 -s 20 -S UP -v circle -c blue -x 483.052 -y 451.54852 -z 4
n -t 90.6787 -s 23 -S UP -v circle -c blue -x 285.0402 -y 124.27954 -z 4
n -t 91.12136 -s 31 -S UP -v circle -c blue -x 85.95747 -y 221.51578 -z 4
n -t 92.14593 -s 40 -S UP -v circle -c blue -x 11.594788 -y 163.15755 -z 4
n -t 92.592316 -s 25 -S UP -v circle -c blue -x 417.09418 -y 252.0746 -z 4
n -t 93.055405 -s 13 -S UP -v circle -c blue -x 278.2423 -y 276.8405 -z 4
n -t 97.77834 -s 4 -S UP -v circle -c red -x 369.82306 -y 451.4342 -z 4
n -t 98.10612 -s 48 -S UP -v circle -c blue -x 262.0398 -y 88.06201 -z 4
n -t 100.30413 -s 23 -S UP -v circle -c blue -x 288.64008 -y 5.223648 -z 4
n -t 101.37963 -s 44 -S UP -v circle -c blue -x 299.40817 -y 254.75027 -z 4
n -t 101.38566 -s 8 -S UP -v circle -c red -x 169.8717 -y 213.80136 -z 4
n -t 103.23963 -s 40 -S UP -v circle -c blue -x 33.77874 -y 338.95193 -z 4
n -t 107.03988 -s 28 -S UP -v circle -c blue -x 39.858368 -y 17.292786 -z 4
n -t 109.43244 -s 49 -S UP -v circle -c blue -x 162.94836 -y 93.4971 -z 4
n -t 111.25068 -s 39 -S UP -v circle -c blue -x 55.767822 -y 27.49794 -z 4
n -t 111.60261 -s 12 -S UP -v circle -c blue -x 24.58162 -y 41.125732 -z 4
n -t 112.81866 -s 3 -S UP -v circle -c red -x 115.62178 -y 191.07721 -z 4
n -t 113.217926 -s 6 -S UP -v circle -c red -x 423.03305 -y 56.516052 -z 4
n -t 113.234566 -s 13 -S UP -v circle -c blue -x 263.58185 -y 1.8639832 -z 4
n -t 113.29477 -s 12 -S UP -v circle -c blue -x 34.721924 -y 57.3329 -z 4
n -t 115.02065 -s 20 -S UP -v circle -c blue -x 333.16385 -y 200.91621 -z 4
n -t 118.41994 -s 25 -S UP -v circle -c blue -x 53.564545 -y 89.52426 -z 4
n -t 119.82366 -s 24 -S UP -v circle -c blue -x 144.64807 -y 453.7648 -z 4
n -t 121.18432 -s 26 -S UP -v circle -c blue -x 327.06845 -y 393.62924 -z 4
n -t 124.41574 -s 4 -S UP -v circle -c red -x 459.61374 -y 7.324585 -z 4
n -t 124.731766 -s 11 -S UP -v circle -c blue -x 248.90546 -y 358.89337 -z 4
n -t 125.41344 -s 20 -S UP -v circle -c blue -x 177.9324 -y 177.64124 -z 4
n -t 125.45865 -s 13 -S UP -v circle -c blue -x 211.08376 -y 107.411705 -z 4
n -t 126.592575 -s 8 -S UP -v circle -c red -x 261.67984 -y 406.95874 -z 4
n -t 127.31421 -s 40 -S UP -v circle -c blue -x 154.35364 -y 26.314148 -z 4
n -t 129.0131 -s 33 -S UP -v circle -c blue -x 353.3229 -y 433.9925 -z 4
n -t 129.4305 -s 21 -S UP -v circle -c blue -x 300.37994 -y 246.08151 -z 4
n -t 129.98558 -s 32 -S UP -v circle -c blue -x 73.130585 -y 486.1567 -z 4
n -t 130.26242 -s 44 -S UP -v circle -c blue -x 477.8224 -y 462.39566 -z 4
n -t 130.87221 -s 25 -S UP -v circle -c blue -x 295.94153 -y 104.37736 -z 4
n -t 130.88843 -s 20 -S UP -v circle -c blue -x 198.10043 -y 270.08453 -z 4
n -t 131.47398 -s 23 -S UP -v circle -c blue -x 78.987976 -y 18.025415 -z 4
n -t 132.16962 -s 13 -S UP -v circle -c blue -x 164.95152 -y 16.180687 -z 4
n -t 132.85748 -s 15 -S UP -v circle -c blue -x 30.32669 -y 202.17435 -z 4
n -t 136.15022 -s 45 -S UP -v circle -c blue -x 339.08112 -y 345.51712 -z 4
n -t 138.42303 -s 39 -S UP -v circle -c blue -x 152.23761 -y 381.64648 -z 4
n -t 138.48773 -s 6 -S UP -v circle -c red -x 358.58774 -y 410.90332 -z 4
n -t 139.70688 -s 3 -S UP -v circle -c red -x 59.12378 -y 491.20276 -z 4
n -t 140.78351 -s 11 -S UP -v circle -c blue -x 303.84802 -y 73.463776 -z 4
n -t 145.31352 -s 15 -S UP -v circle -c blue -x 37.2181 -y 221.90385 -z 4
n -t 145.4209 -s 37 -S UP -v circle -c blue -x 32.77356 -y 446.39255 -z 4
n -t 147.31477 -s 14 -S UP -v circle -c blue -x 193.42255 -y 474.37366 -z 4
n -t 147.73624 -s 37 -S UP -v circle -c blue -x 11.796295 -y 479.7563 -z 4
n -t 147.85562 -s 31 -S UP -v circle -c blue -x 385.29657 -y 493.91437 -z 4
n -t 148.05449 -s 25 -S UP -v circle -c blue -x 5.8999634 -y 70.57551 -z 4
n -t 148.72954 -s 8 -S UP -v circle -c red -x 443.5554 -y 144.43811 -z 4
n -t 148.85901 -s 33 -S UP -v circle -c blue -x 53.101593 -y 363.23877 -z 4
n -t 148.95682 -s 4 -S UP -v circle -c red -x 163.25327 -y 136.19708 -z 4
n -t 150.50285 -s 20 -S UP -v circle -c blue -x 337.66415 -y 456.32248 -z 4
n -t 151.24603 -s 26 -S UP -v circle -c blue -x 56.5571 -y 124.37866 -z 4
n -t 152.99118 -s 6 -S UP -v circle -c red -x 437.99628 -y 432.581 -z 4
n -t 153.4035 -s 11 -S UP -v circle -c blue -x 246.54619 -y 182.57465 -z 4
n -t 153.58073 -s 23 -S UP -v circle -c blue -x 340.69125 -y 303.2304 -z 4
n -t 155.40465 -s 24 -S UP -v circle -c blue -x 132.5972 -y 88.70587 -z 4
n -t 155.41235 -s 30 -S UP -v circle -c blue -x 123.22775 -y 73.42511 -z 4
n -t 155.76044 -s 14 -S UP -v circle -c blue -x 103.829025 -y 415.87772 -z 4
n -t 157.91861 -s 3 -S UP -v circle -c red -x 309.49246 -y 406.59985 -z 4
n -t 159.40997 -s 12 -S UP -v circle -c blue -x 342.77847 -y 319.64453 -z 4
n -t 159.78867 -s 45 -S UP -v circle -c blue -x 274.10236 -y 365.95074 -z 4
n -t 160.05898 -s 35 -S UP -v circle -c blue -x 365.26297 -y 116.068184 -z 4
n -t 160.07484 -s 50 -S UP -v circle -c blue -x 19.989075 -y 191.02187 -z 4
n -t 160.82407 -s 7 -S UP -v circle -c red -x 197.729 -y 167.53407 -z 4
n -t 163.41118 -s 4 -S UP -v circle -c red -x 297.77368 -y 134.48732 -z 4
n -t 165.41393 -s 9 -S UP -v circle -c blue -x 406.98862 -y 14.283447 -z 4
n -t 165.82787 -s 7 -S UP -v circle -c red -x 215.64586 -y 210.95383 -z 4
n -t 166.50876 -s 31 -S UP -v circle -c blue -x 448.6682 -y 161.82077 -z 4
n -t 166.75752 -s 37 -S UP -v circle -c blue -x 352.6571 -y 427.5575 -z 4
n -t 168.01404 -s 40 -S UP -v circle -c blue -x 429.75595 -y 442.3786 -z 4
n -t 169.65979 -s 30 -S UP -v circle -c blue -x 165.73332 -y 317.52502 -z 4
n -t 170.10495 -s 24 -S UP -v circle -c blue -x 324.10068 -y 156.54385 -z 4
n -t 173.46898 -s 10 -S UP -v circle -c blue -x 346.71988 -y 238.24432 -z 4
n -t 175.6877 -s 45 -S UP -v circle -c blue -x 83.98584 -y 350.61417 -z 4
n -t 177.02116 -s 7 -S UP -v circle -c red -x 47.797424 -y 107.53559 -z 4
n -t 179.78986 -s 12 -S UP -v circle -c blue -x 374.849 -y 98.973724 -z 4
n -t 180.13466 -s 37 -S UP -v circle -c blue -x 403.44092 -y 347.22488 -z 4
n -t 180.53554 -s 4 -S UP -v circle -c red -x 20.54892 -y 17.113792 -z 4
n -t 181.07236 -s 14 -S UP -v circle -c blue -x 80.37908 -y 309.40268 -z 4
n -t 181.51523 -s 33 -S UP -v circle -c blue -x 438.40656 -y 195.17067 -z 4
n -t 181.81657 -s 22 -S UP -v circle -c blue -x 412.20078 -y 329.64658 -z 4
n -t 182.10887 -s 1 -S UP -v circle -c red -x 355.98538 -y 95.83248 -z 4
n -t 184.13379 -s 24 -S UP -v circle -c blue -x 154.3078 -y 35.08104 -z 4
n -t 184.27199 -s 11 -S UP -v circle -c blue -x 7.8724365 -y 402.00314 -z 4
n -t 185.45436 -s 23 -S UP -v circle -c blue -x 25.410706 -y 302.64108 -z 4
n -t 186.4611 -s 32 -S UP -v circle -c blue -x 343.6628 -y 143.81079 -z 4
n -t 187.14928 -s 6 -S UP -v circle -c red -x 450.25143 -y 206.51334 -z 4
n -t 188.63626 -s 1 -S UP -v circle -c red -x 462.34445 -y 110.18763 -z 4
n -t 191.54666 -s 33 -S UP -v circle -c blue -x 368.58566 -y 335.75763 -z 4
n -t 192.13152 -s 10 -S UP -v circle -c blue -x 388.70322 -y 406.8111 -z 4
n -t 192.45831 -s 24 -S UP -v circle -c blue -x 120.86727 -y 144.15422 -z 4
n -t 193.71158 -s 48 -S UP -v circle -c blue -x 422.02136 -y 474.34818 -z 4
n -t 194.42332 -s 17 -S UP -v circle -c blue -x 388.3526 -y 467.38565 -z 4
n -t 196.22963 -s 30 -S UP -v circle -c blue -x 301.04004 -y 42.646057 -z 4
n -t 197.95956 -s 12 -S UP -v circle -c blue -x 205.1301 -y 75.19364 -z 4
n -t 198.07063 -s 7 -S UP -v circle -c red -x 359.8508 -y 236.48843 -z 4
n -t 198.29732 -s 6 -S UP -v circle -c red -x 364.33887 -y 42.55188 -z 4
n -t 198.49138 -s 7 -S UP -v circle -c red -x 362.6187 -y 238.05275 -z 4
n -t 198.97415 -s 10 -S UP -v circle -c blue -x 498.58527 -y 329.02377 -z 4
n -t 199.44406 -s 14 -S UP -v circle -c blue -x 119.770584 -y 107.82434 -z 4
n -t 200.34062 -s 31 -S UP -v circle -c blue -x 152.88516 -y 461.50186 -z 4
n -t 200.36218 -s 1 -S UP -v circle -c red -x 252.12679 -y 38.133865 -z 4
n -t 201.63087 -s 49 -S UP -v circle -c blue -x 355.61197 -y 288.41302 -z 4
n -t 203.66118 -s 14 -S UP -v circle -c blue -x 55.25428 -y 99.130455 -z 4
n -t 204.20705 -s 22 -S UP -v circle -c blue -x 383.88153 -y 77.98775 -z 4
n -t 206.90912 -s 30 -S UP -v circle -c blue -x 259.96213 -y 84.86227 -z 4
n -t 207.43558 -s 9 -S UP -v circle -c blue -x 63.95407 -y 362.07544 -z 4
n -t 208.62413 -s 33 -S UP -v circle -c blue -x 83.205444 -y 389.77548 -z 4
n -t 211.37898 -s 30 -S UP -v circle -c blue -x 192.85666 -y 59.240753 -z 4
n -t 211.91188 -s 36 -S UP -v circle -c blue -x 470.43777 -y 54.228073 -z 4
n -t 212.98853 -s 50 -S UP -v circle -c blue -x 494.9242 -y 335.07492 -z 4
n -t 213.636 -s 32 -S UP -v circle -c blue -x 28.981201 -y 13.823471 -z 4
n -t 213.86076 -s 12 -S UP -v circle -c blue -x 387.5919 -y 167.02612 -z 4
n -t 215.02496 -s 37 -S UP -v circle -c blue -x 174.70647 -y 266.15408 -z 4
n -t 216.16022 -s 48 -S UP -v circle -c blue -x 166.25859 -y 482.78174 -z 4
n -t 216.22626 -s 33 -S UP -v circle -c blue -x 9.465492 -y 495.28696 -z 4
n -t 217.63632 -s 7 -S UP -v circle -c red -x 81.88733 -y 240.32607 -z 4
n -t 217.75682 -s 10 -S UP -v circle -c blue -x 158.10324 -y 348.63965 -z 4
n -t 218.21957 -s 31 -S UP -v circle -c blue -x 2.2818298 -y 347.85806 -z 4
n -t 219.25258 -s 47 -S UP -v circle -c blue -x 409.39856 -y 499.3272 -z 4
n -t 220.68507 -s 7 -S UP -v circle -c red -x 108.94136 -y 276.0116 -z 4
n -t 222.26804 -s 23 -S UP -v circle -c blue -x 428.6713 -y 2.3964844 -z 4
n -t 222.32333 -s 11 -S UP -v circle -c blue -x 52.082485 -y 63.00937 -z 4
n -t 223.70032 -s 5 -S UP -v circle -c red -x 273.18088 -y 426.09424 -z 4
n -t 224.45036 -s 44 -S UP -v circle -c blue -x 210.05267 -y 129.41959 -z 4
n -t 228.16055 -s 15 -S UP -v circle -c blue -x 46.75858 -y 480.9842 -z 4
n -t 228.37895 -s 20 -S UP -v circle -c blue -x 92.18512 -y 463.33902 -z 4
n -t 230.63995 -s 12 -S UP -v circle -c blue -x 316.7082 -y 473.91324 -z 4
n -t 231.16791 -s 13 -S UP -v circle -c blue -x 455.55005 -y 302.33 -z 4
n -t 231.25502 -s 22 -S UP -v circle -c blue -x 127.00275 -y 362.0384 -z 4
n -t 231.44789 -s 37 -S UP -v circle -c blue -x 23.681824 -y 61.498306 -z 4
n -t 233.45413 -s 26 -S UP -v circle -c blue -x 140.08818 -y 256.69366 -z 4
n -t 235.80992 -s 17 -S UP -v circle -c blue -x 233.4337 -y 53.571625 -z 4
n -t 236.36378 -s 10 -S UP -v circle -c blue -x 186.26521 -y 213.21599 -z 4
n -t 237.68544 -s 14 -S UP -v circle -c blue -x 461.7972 -y 428.8759 -z 4
n -t 237.78058 -s 1 -S UP -v circle -c red -x 445.8597 -y 300.58386 -z 4
n -t 238.64308 -s 47 -S UP -v circle -c blue -x 234.71394 -y 315.64172 -z 4
n -t 239.17146 -s 36 -S UP -v circle -c blue -x 438.79913 -y 438.8056 -z 4
n -t 239.599 -s 48 -S UP -v circle -c blue -x 209.03969 -y 54.865814 -z 4
n -t 241.34288 -s 38 -S UP -v circle -c blue -x 430.20288 -y 103.77839 -z 4
n -t 244.08185 -s 31 -S UP -v circle -c blue -x 120.212105 -y 271.1786 -z 4
n -t 244.84203 -s 6 -S UP -v circle -c red -x 283.29608 -y 358.9922 -z 4
n -t 245.85841 -s 10 -S UP -v circle -c blue -x 141.18022 -y 378.21396 -z 4
n -t 247.22713 -s 15 -S UP -v circle -c blue -x 243.57889 -y 173.98822 -z 4
n -t 249.16423 -s 33 -S UP -v circle -c blue -x 387.9379 -y 489.68576 -z 4
n -t 251.6761 -s 3 -S UP -v circle -c red -x 338.99286 -y 68.66278 -z 4
n -t 251.73987 -s 40 -S UP -v circle -c blue -x 377.68265 -y 153.45917 -z 4
n -t 255.49266 -s 47 -S UP -v circle -c blue -x 404.26788 -y 51.804382 -z 4
n -t 256.37653 -s 1 -S UP -v circle -c red -x 196.9225 -y 456.78778 -z 4
n -t 257.55756 -s 23 -S UP -v circle -c blue -x 181.05002 -y 439.40134 -z 4
n -t 258.84207 -s 6 -S UP -v circle -c red -x 25.208923 -y 392.269 -z 4
n -t 259.6567 -s 43 -S UP -v circle -c blue -x 163.53287 -y 291.5461 -z 4
n -t 261.25928 -s 10 -S UP -v circle -c blue -x 375.37424 -y 214.01895 -z 4
n -t 262.92154 -s 38 -S UP -v circle -c blue -x 104.84772 -y 235.34116 -z 4
n -t 264.8722 -s 15 -S UP -v circle -c blue -x 283.20483 -y 346.5516 -z 4
n -t 266.41956 -s 47 -S UP -v circle -c blue -x 415.76654 -y 230.05334 -z 4
n -t 269.91223 -s 27 -S UP -v circle -c blue -x 410.28958 -y 378.83508 -z 4
n -t 270.50525 -s 32 -S UP -v circle -c blue -x 493.20767 -y 120.638664 -z 4
n -t 271.41428 -s 43 -S UP -v circle -c blue -x 184.42584 -y 353.07034 -z 4
n -t 271.5108 -s 24 -S UP -v circle -c blue -x 246.75882 -y 425.23682 -z 4
n -t 273.47073 -s 11 -S UP -v circle -c blue -x 370.61554 -y 60.995537 -z 4
n -t 278.65704 -s 6 -S UP -v circle -c red -x 225.27383 -y 146.02339 -z 4
n -t 279.13358 -s 40 -S UP -v circle -c blue -x 41.522064 -y 181.19167 -z 4
n -t 279.48163 -s 8 -S UP -v circle -c red -x 105.33624 -y 74.296295 -z 4
n -t 279.8188 -s 43 -S UP -v circle -c blue -x 163.00887 -y 233.417 -z 4
n -t 282.646 -s 49 -S UP -v circle -c blue -x 319.09613 -y 68.05525 -z 4
n -t 282.72028 -s 31 -S UP -v circle -c blue -x 405.4112 -y 64.97015 -z 4
n -t 283.44247 -s 11 -S UP -v circle -c blue -x 232.67148 -y 188.43256 -z 4
n -t 283.55084 -s 47 -S UP -v circle -c blue -x 346.7628 -y 358.6891 -z 4
n -t 283.6601 -s 3 -S UP -v circle -c red -x 11.069702 -y 90.8065 -z 4
n -t 287.01117 -s 43 -S UP -v circle -c blue -x 255.24947 -y 195.28894 -z 4
n -t 292.03778 -s 32 -S UP -v circle -c blue -x 227.78818 -y 366.0922 -z 4
n -t 293.5548 -s 23 -S UP -v circle -c blue -x 271.63446 -y 147.70258 -z 4
n -t 293.55923 -s 1 -S UP -v circle -c red -x 453.66418 -y 256.66705 -z 4
n -t 294.9708 -s 24 -S UP -v circle -c blue -x 68.18393 -y 124.7695 -z 4
n -t 295.99908 -s 7 -S UP -v circle -c red -x 230.26009 -y 430.09845 -z 4
n -t 297.92828 -s 38 -S UP -v circle -c blue -x 91.28093 -y 499.61972 -z 4
n -t 298.32776 -s 40 -S UP -v circle -c blue -x 294.13843 -y 170.00525 -z 4
n -t 299.41617 -s 6 -S UP -v circle -c red -x 72.76437 -y 384.24365 -z 4
n -t 300.93463 -s 43 -S UP -v circle -c blue -x 431.2413 -y 285.40326 -z 4
n -t 302.4566 -s 28 -S UP -v circle -c blue -x 377.56525 -y 279.05057 -z 4
n -t 304.17603 -s 40 -S UP -v circle -c blue -x 347.2765 -y 273.26422 -z 4
n -t 304.66568 -s 3 -S UP -v circle -c red -x 312.2638 -y 198.20871 -z 4
n -t 304.68408 -s 44 -S UP -v circle -c blue -x 147.00902 -y 269.61896 -z 4
n -t 306.2969 -s 35 -S UP -v circle -c blue -x 306.09036 -y 120.00843 -z 4
n -t 306.8158 -s 1 -S UP -v circle -c red -x 388.47678 -y 371.98477 -z 4
n -t 306.89755 -s 44 -S UP -v circle -c blue -x 162.42456 -y 302.20416 -z 4
n -t 309.9713 -s 45 -S UP -v circle -c blue -x 454.76117 -y 344.8137 -z 4
n -t 313.07028 -s 48 -S UP -v circle -c blue -x 36.837616 -y 281.36035 -z 4
n -t 313.8417 -s 47 -S UP -v circle -c blue -x 236.47215 -y 285.0778 -z 4
n -t 314.9557 -s 40 -S UP -v circle -c blue -x 442.10498 -y 87.788284 -z 4
n -t 315.03735 -s 48 -S UP -v circle -c blue -x 61.001976 -y 271.71326 -z 4
n -t 315.25806 -s 20 -S UP -v circle -c blue -x 283.71634 -y 447.76373 -z 4
n -t 319.58942 -s 13 -S UP -v circle -c blue -x 90.00232 -y 404.59656 -z 4
n -t 321.4017 -s 38 -S UP -v circle -c blue -x 489.654 -y 265.08636 -z 4
n -t 322.04633 -s 8 -S UP -v circle -c red -x 126.06318 -y 473.5092 -z 4
n -t 323.18872 -s 44 -S UP -v circle -c blue -x 138.94348 -y 336.46423 -z 4
n -t 323.34018 -s 15 -S UP -v circle -c blue -x 429.35272 -y 124.33334 -z 4
n -t 324.20895 -s 3 -S UP -v circle -c red -x 118.08061 -y 270.1385 -z 4